
     Program PWSCF v.7.0 starts on  8Apr2022 at 14:57:10 

     This program is part of the open-source Quantum ESPRESSO suite
     for quantum simulation of materials; please cite
         "P. Giannozzi et al., J. Phys.:Condens. Matter 21 395502 (2009);
         "P. Giannozzi et al., J. Phys.:Condens. Matter 29 465901 (2017);
         "P. Giannozzi et al., J. Chem. Phys. 152 154105 (2020);
          URL http://www.quantum-espresso.org", 
     in publications or presentations arising from this work. More details at
     http://www.quantum-espresso.org/quote

     Parallel version (MPI), running on     8 processors

     MPI processes distributed on     1 nodes
     R & G space division:  proc/nbgrp/npool/nimage =       8
     53694 MiB available memory on the printing compute node when the environment starts
 
     Reading input from basis_50.pwi
Warning: card &CELL ignored
Warning: card / ignored

     Current dimensions of program PWSCF are:
     Max number of different atomic species (ntypx) = 10
     Max number of k-points (npk) =  40000
     Max angular momentum in pseudopotentials (lmaxx) =  4

     Subspace diagonalization in iterative solution of the eigenvalue problem:
     a serial algorithm will be used

 
     Parallelization info
     --------------------
     sticks:   dense  smooth     PW     G-vecs:    dense   smooth      PW
     Min         148     148     44                 2666     2666     443
     Max         149     149     45                 2668     2668     444
     Sum        1185    1185    357                21331    21331    3547
 
     Using Slab Decomposition
 

     Title: 
     IrO2 Unit Cell                                                             


     bravais-lattice index     =            6
     lattice parameter (alat)  =       8.5888  a.u.
     unit-cell volume          =     444.6868 (a.u.)^3
     number of atoms/cell      =            6
     number of atomic types    =            2
     number of electrons       =        58.00
     number of Kohn-Sham states=           70
     kinetic-energy cutoff     =      50.0000  Ry
     charge density cutoff     =     200.0000  Ry
     scf convergence threshold =      1.0E-09
     mixing beta               =       0.7000
     number of iterations used =            8  plain     mixing
     Exchange-correlation= PBE
                           (   1   4   3   4   0   0   0)
     Non magnetic calculation with spin-orbit


     celldm(1)=   8.588800  celldm(2)=   0.000000  celldm(3)=   0.701870
     celldm(4)=   0.000000  celldm(5)=   0.000000  celldm(6)=   0.000000

     crystal axes: (cart. coord. in units of alat)
               a(1) = (   1.000000   0.000000   0.000000 )  
               a(2) = (   0.000000   1.000000   0.000000 )  
               a(3) = (   0.000000   0.000000   0.701870 )  

     reciprocal axes: (cart. coord. in units 2 pi/alat)
               b(1) = (  1.000000  0.000000  0.000000 )  
               b(2) = (  0.000000  1.000000  0.000000 )  
               b(3) = (  0.000000  0.000000  1.424765 )  


     PseudoPot. # 1 for O  read from file:
     ../../XX_PSEUDO/O_ONCV_PBE_fr.upf
     MD5 check sum: 59c925217d3b58c6d762355590b68b09
     Pseudo is Norm-conserving, Zval =  6.0
     Generated using ONCVPSP code by D. R. Hamann
     Using radial grid of  936 points,  6 beta functions with: 
                l(1) =   0
                l(2) =   0
                l(3) =   1
                l(4) =   1
                l(5) =   1
                l(6) =   1

     PseudoPot. # 2 for Ir read from file:
     ../../XX_PSEUDO/Ir_ONCV_PBE_fr.upf
     MD5 check sum: 924e909c4146afa09f62ee3401806954
     Pseudo is Norm-conserving, Zval = 17.0
     Generated using ONCVPSP code by D. R. Hamann
     Using radial grid of 1310 points, 14 beta functions with: 
                l(1) =   0
                l(2) =   0
                l(3) =   1
                l(4) =   1
                l(5) =   1
                l(6) =   1
                l(7) =   2
                l(8) =   2
                l(9) =   2
               l(10) =   2
               l(11) =   3
               l(12) =   3
               l(13) =   3
               l(14) =   3

     atomic species   valence    mass     pseudopotential
        O              6.00    15.99900     O ( 1.00)
        Ir            17.00   192.21700     Ir( 1.00)

     16 Sym. Ops., with inversion, found ( 8 have fractional translation)


                                    s                        frac. trans.

      isym =  1     identity                                     

 cryst.   s( 1) = (     1          0          0      )
                  (     0          1          0      )
                  (     0          0          1      )

 cart.    s( 1) = (  1.0000000  0.0000000  0.0000000 )
                  (  0.0000000  1.0000000  0.0000000 )
                  (  0.0000000  0.0000000  1.0000000 )


      isym =  2     180 deg rotation - cart. axis [0,0,1]        

 cryst.   s( 2) = (    -1          0          0      )
                  (     0         -1          0      )
                  (     0          0          1      )

 cart.    s( 2) = ( -1.0000000  0.0000000  0.0000000 )
                  (  0.0000000 -1.0000000  0.0000000 )
                  (  0.0000000  0.0000000  1.0000000 )


      isym =  3     180 deg rotation - cart. axis [0,1,0]        

 cryst.   s( 3) = (    -1          0          0      )    f =(  0.5000000 )
                  (     0          1          0      )       ( -0.5000000 )
                  (     0          0         -1      )       (  0.5000000 )

 cart.    s( 3) = ( -1.0000000  0.0000000  0.0000000 )    f =(  0.5000000 )
                  (  0.0000000  1.0000000  0.0000000 )       ( -0.5000000 )
                  (  0.0000000  0.0000000 -1.0000000 )       (  0.3509351 )


      isym =  4     180 deg rotation - cart. axis [1,0,0]        

 cryst.   s( 4) = (     1          0          0      )    f =( -0.5000000 )
                  (     0         -1          0      )       (  0.5000000 )
                  (     0          0         -1      )       (  0.5000000 )

 cart.    s( 4) = (  1.0000000  0.0000000  0.0000000 )    f =( -0.5000000 )
                  (  0.0000000 -1.0000000  0.0000000 )       (  0.5000000 )
                  (  0.0000000  0.0000000 -1.0000000 )       (  0.3509351 )


      isym =  5     180 deg rotation - cart. axis [1,1,0]        

 cryst.   s( 5) = (     0          1          0      )
                  (     1          0          0      )
                  (     0          0         -1      )

 cart.    s( 5) = (  0.0000000  1.0000000  0.0000000 )
                  (  1.0000000  0.0000000  0.0000000 )
                  (  0.0000000  0.0000000 -1.0000000 )


      isym =  6     180 deg rotation - cart. axis [1,-1,0]       

 cryst.   s( 6) = (     0         -1          0      )
                  (    -1          0          0      )
                  (     0          0         -1      )

 cart.    s( 6) = (  0.0000000 -1.0000000  0.0000000 )
                  ( -1.0000000  0.0000000  0.0000000 )
                  (  0.0000000  0.0000000 -1.0000000 )


      isym =  7      90 deg rotation - cart. axis [0,0,-1]       

 cryst.   s( 7) = (     0         -1          0      )    f =( -0.5000000 )
                  (     1          0          0      )       (  0.5000000 )
                  (     0          0          1      )       ( -0.5000000 )

 cart.    s( 7) = (  0.0000000  1.0000000  0.0000000 )    f =( -0.5000000 )
                  ( -1.0000000  0.0000000  0.0000000 )       (  0.5000000 )
                  (  0.0000000  0.0000000  1.0000000 )       ( -0.3509351 )


      isym =  8      90 deg rotation - cart. axis [0,0,1]        

 cryst.   s( 8) = (     0          1          0      )    f =(  0.5000000 )
                  (    -1          0          0      )       ( -0.5000000 )
                  (     0          0          1      )       ( -0.5000000 )

 cart.    s( 8) = (  0.0000000 -1.0000000  0.0000000 )    f =(  0.5000000 )
                  (  1.0000000  0.0000000  0.0000000 )       ( -0.5000000 )
                  (  0.0000000  0.0000000  1.0000000 )       ( -0.3509351 )


      isym =  9     inversion                                    

 cryst.   s( 9) = (    -1          0          0      )
                  (     0         -1          0      )
                  (     0          0         -1      )

 cart.    s( 9) = ( -1.0000000  0.0000000  0.0000000 )
                  (  0.0000000 -1.0000000  0.0000000 )
                  (  0.0000000  0.0000000 -1.0000000 )


      isym = 10     inv. 180 deg rotation - cart. axis [0,0,1]   

 cryst.   s(10) = (     1          0          0      )
                  (     0          1          0      )
                  (     0          0         -1      )

 cart.    s(10) = (  1.0000000  0.0000000  0.0000000 )
                  (  0.0000000  1.0000000  0.0000000 )
                  (  0.0000000  0.0000000 -1.0000000 )


      isym = 11     inv. 180 deg rotation - cart. axis [0,1,0]   

 cryst.   s(11) = (     1          0          0      )    f =( -0.5000000 )
                  (     0         -1          0      )       (  0.5000000 )
                  (     0          0          1      )       ( -0.5000000 )

 cart.    s(11) = (  1.0000000  0.0000000  0.0000000 )    f =( -0.5000000 )
                  (  0.0000000 -1.0000000  0.0000000 )       (  0.5000000 )
                  (  0.0000000  0.0000000  1.0000000 )       ( -0.3509351 )


      isym = 12     inv. 180 deg rotation - cart. axis [1,0,0]   

 cryst.   s(12) = (    -1          0          0      )    f =(  0.5000000 )
                  (     0          1          0      )       ( -0.5000000 )
                  (     0          0          1      )       ( -0.5000000 )

 cart.    s(12) = ( -1.0000000  0.0000000  0.0000000 )    f =(  0.5000000 )
                  (  0.0000000  1.0000000  0.0000000 )       ( -0.5000000 )
                  (  0.0000000  0.0000000  1.0000000 )       ( -0.3509351 )


      isym = 13     inv. 180 deg rotation - cart. axis [1,1,0]   

 cryst.   s(13) = (     0         -1          0      )
                  (    -1          0          0      )
                  (     0          0          1      )

 cart.    s(13) = (  0.0000000 -1.0000000  0.0000000 )
                  ( -1.0000000  0.0000000  0.0000000 )
                  (  0.0000000  0.0000000  1.0000000 )


      isym = 14     inv. 180 deg rotation - cart. axis [1,-1,0]  

 cryst.   s(14) = (     0          1          0      )
                  (     1          0          0      )
                  (     0          0          1      )

 cart.    s(14) = (  0.0000000  1.0000000  0.0000000 )
                  (  1.0000000  0.0000000  0.0000000 )
                  (  0.0000000  0.0000000  1.0000000 )


      isym = 15     inv.  90 deg rotation - cart. axis [0,0,-1]  

 cryst.   s(15) = (     0          1          0      )    f =(  0.5000000 )
                  (    -1          0          0      )       ( -0.5000000 )
                  (     0          0         -1      )       (  0.5000000 )

 cart.    s(15) = (  0.0000000 -1.0000000  0.0000000 )    f =(  0.5000000 )
                  (  1.0000000  0.0000000  0.0000000 )       ( -0.5000000 )
                  (  0.0000000  0.0000000 -1.0000000 )       (  0.3509351 )


      isym = 16     inv.  90 deg rotation - cart. axis [0,0,1]   

 cryst.   s(16) = (     0         -1          0      )    f =( -0.5000000 )
                  (     1          0          0      )       (  0.5000000 )
                  (     0          0         -1      )       (  0.5000000 )

 cart.    s(16) = (  0.0000000  1.0000000  0.0000000 )    f =( -0.5000000 )
                  ( -1.0000000  0.0000000  0.0000000 )       (  0.5000000 )
                  (  0.0000000  0.0000000 -1.0000000 )       (  0.3509351 )


     double point group D_4h(4/mmm)
     there are 14 classes and  4 irreducible representations
     the character table:

       E     -E    2C4   -2C4   C2    2C2' 2C2'' i     -i    2S4   -2S4   s_h 
                               -C2   -2C2' -2C2'                         -s_h 
G_6+   2.00 -2.00  1.41 -1.41  0.00  0.00  0.00  2.00 -2.00  1.41 -1.41  0.00
G_7+   2.00 -2.00 -1.41  1.41  0.00  0.00  0.00  2.00 -2.00 -1.41  1.41  0.00
G_6-   2.00 -2.00  1.41 -1.41  0.00  0.00  0.00 -2.00  2.00 -1.41  1.41  0.00
G_7-   2.00 -2.00 -1.41  1.41  0.00  0.00  0.00 -2.00  2.00  1.41 -1.41  0.00

        2s_v  2s_d
       -2s_v -2s_d
G_6+   0.00  0.00
G_7+   0.00  0.00
G_6-   0.00  0.00
G_7-   0.00  0.00

     the symmetry operations in each class and the name of the first element:

     E             1
          identity                                               
     -E           -1
          identity E                                             
     2C4           7    8
           90 deg rotation - cart. axis [0,0,-1]                 
     -2C4         -7   -8
           90 deg rotation - cart. axis [0,0,-1] E               
      C2  -C2      2   -2
          180 deg rotation - cart. axis [0,0,1]                  
      2C2'-2C2'    3   -3    4   -4
          180 deg rotation - cart. axis [0,1,0]                  
     2C2''-2C2'    5   -5   -6    6
          180 deg rotation - cart. axis [1,1,0]                  
     i             9
          inversion                                              
     -i           -9
          inversion E                                            
     2S4          15   16
          inv.  90 deg rotation - cart. axis [0,0,-1]            
     -2S4        -15  -16
          inv.  90 deg rotation - cart. axis [0,0,-1] E          
      s_h -s_h    10  -10
          inv. 180 deg rotation - cart. axis [0,0,1]             
      2s_v-2s_v   11  -11   12  -12
          inv. 180 deg rotation - cart. axis [0,1,0]             
      2s_d-2s_d   13  -13  -14   14
          inv. 180 deg rotation - cart. axis [1,1,0]             

   Cartesian axes

     site n.     atom                  positions (alat units)
         1           Ir  tau(   1) = (   0.0000000   0.0000000   0.0000000  )
         2           Ir  tau(   2) = (   0.5000000   0.5000000   0.3509351  )
         3           O   tau(   3) = (   0.1916000   0.8084000   0.3509351  )
         4           O   tau(   4) = (   0.3084000   0.3084000   0.0000000  )
         5           O   tau(   5) = (   0.6916000   0.6916000   0.0000000  )
         6           O   tau(   6) = (   0.8084000   0.1916000   0.3509351  )

   Crystallographic axes

     site n.     atom                  positions (cryst. coord.)
         1           Ir  tau(   1) = (  0.0000000  0.0000000  0.0000000  )
         2           Ir  tau(   2) = (  0.5000000  0.5000000  0.5000000  )
         3           O   tau(   3) = (  0.1916000  0.8084000  0.5000000  )
         4           O   tau(   4) = (  0.3084000  0.3084000  0.0000000  )
         5           O   tau(   5) = (  0.6916000  0.6916000  0.0000000  )
         6           O   tau(   6) = (  0.8084000  0.1916000  0.5000000  )

     number of k points=     6  Methfessel-Paxton smearing, width (Ry)=  0.0050
                       cart. coord. in units 2pi/alat
        k(    1) = (   0.0000000   0.0000000   0.0000000), wk =   0.1250000
        k(    2) = (   0.0000000   0.0000000  -0.7123824), wk =   0.1250000
        k(    3) = (   0.0000000  -0.5000000   0.0000000), wk =   0.2500000
        k(    4) = (   0.0000000  -0.5000000  -0.7123824), wk =   0.2500000
        k(    5) = (  -0.5000000  -0.5000000   0.0000000), wk =   0.1250000
        k(    6) = (  -0.5000000  -0.5000000  -0.7123824), wk =   0.1250000

                       cryst. coord.
        k(    1) = (   0.0000000   0.0000000   0.0000000), wk =   0.1250000
        k(    2) = (   0.0000000   0.0000000  -0.5000000), wk =   0.1250000
        k(    3) = (   0.0000000  -0.5000000   0.0000000), wk =   0.2500000
        k(    4) = (   0.0000000  -0.5000000  -0.5000000), wk =   0.2500000
        k(    5) = (  -0.5000000  -0.5000000   0.0000000), wk =   0.1250000
        k(    6) = (  -0.5000000  -0.5000000  -0.5000000), wk =   0.1250000

     Dense  grid:    21331 G-vectors     FFT dimensions: (  40,  40,  30)

     Dynamical RAM for                 wfc:       0.71 MB

     Dynamical RAM for     wfc (w. buffer):       4.95 MB

     Dynamical RAM for           str. fact:       0.08 MB

     Dynamical RAM for           local pot:       0.00 MB

     Dynamical RAM for          nlocal pot:       0.91 MB

     Dynamical RAM for                qrad:      15.90 MB

     Dynamical RAM for          rho,v,vnew:       1.07 MB

     Dynamical RAM for               rhoin:       0.36 MB

     Dynamical RAM for            rho*nmix:       2.61 MB

     Dynamical RAM for           G-vectors:       0.17 MB

     Dynamical RAM for          h,s,v(r/c):       0.90 MB

     Dynamical RAM for          <psi|beta>:       0.38 MB

     Dynamical RAM for                 psi:       1.41 MB

     Dynamical RAM for                hpsi:       1.41 MB

     Dynamical RAM for      wfcinit/wfcrot:       1.21 MB

     Estimated static dynamical RAM per process >      23.96 MB

     Estimated max dynamical RAM per process >      30.68 MB

     Estimated total dynamical RAM >     245.42 MB

     Initial potential from superposition of free atoms

     starting charge      57.9997, renormalised to      58.0000
     Starting wfcs are   72 randomized atomic wfcs

     total cpu time spent up to now is        0.2 secs

     Self-consistent Calculation

     iteration #  1     ecut=    50.00 Ry     beta= 0.70
     Davidson diagonalization with overlap

---- Real-time Memory Report at c_bands before calling an iterative solver
           112 MiB given to the printing process from OS
             0 MiB allocation reported by mallinfo(arena+hblkhd)
         53342 MiB available memory on the node where the printing process lives
------------------
     ethr =  1.00E-02,  avg # of iterations =  2.2

     total cpu time spent up to now is        0.7 secs

     total energy              =    -552.28491431 Ry
     estimated scf accuracy    <       0.93706565 Ry

     iteration #  2     ecut=    50.00 Ry     beta= 0.70
     Davidson diagonalization with overlap

---- Real-time Memory Report at c_bands before calling an iterative solver
           124 MiB given to the printing process from OS
             0 MiB allocation reported by mallinfo(arena+hblkhd)
         53293 MiB available memory on the node where the printing process lives
------------------
     ethr =  1.62E-03,  avg # of iterations =  2.2

     total cpu time spent up to now is        1.2 secs

     total energy              =    -552.21326319 Ry
     estimated scf accuracy    <       2.95274797 Ry

     iteration #  3     ecut=    50.00 Ry     beta= 0.70
     Davidson diagonalization with overlap

---- Real-time Memory Report at c_bands before calling an iterative solver
           127 MiB given to the printing process from OS
             0 MiB allocation reported by mallinfo(arena+hblkhd)
         53279 MiB available memory on the node where the printing process lives
------------------
     ethr =  1.62E-03,  avg # of iterations =  2.0

     total cpu time spent up to now is        1.7 secs

     total energy              =    -552.77199207 Ry
     estimated scf accuracy    <       0.02319065 Ry

     iteration #  4     ecut=    50.00 Ry     beta= 0.70
     Davidson diagonalization with overlap

---- Real-time Memory Report at c_bands before calling an iterative solver
           128 MiB given to the printing process from OS
             0 MiB allocation reported by mallinfo(arena+hblkhd)
         53263 MiB available memory on the node where the printing process lives
------------------
     ethr =  4.00E-05,  avg # of iterations =  3.2

     total cpu time spent up to now is        2.2 secs

     total energy              =    -552.77525149 Ry
     estimated scf accuracy    <       0.00263774 Ry

     iteration #  5     ecut=    50.00 Ry     beta= 0.70
     Davidson diagonalization with overlap

---- Real-time Memory Report at c_bands before calling an iterative solver
           129 MiB given to the printing process from OS
             0 MiB allocation reported by mallinfo(arena+hblkhd)
         53263 MiB available memory on the node where the printing process lives
------------------
     c_bands:  2 eigenvalues not converged
     ethr =  4.55E-06,  avg # of iterations =  4.8

     total cpu time spent up to now is        2.6 secs

     total energy              =    -552.77552921 Ry
     estimated scf accuracy    <       0.00010343 Ry

     iteration #  6     ecut=    50.00 Ry     beta= 0.70
     Davidson diagonalization with overlap

---- Real-time Memory Report at c_bands before calling an iterative solver
           132 MiB given to the printing process from OS
             0 MiB allocation reported by mallinfo(arena+hblkhd)
         53255 MiB available memory on the node where the printing process lives
------------------
     ethr =  1.78E-07,  avg # of iterations =  2.0

     total cpu time spent up to now is        3.1 secs

     total energy              =    -552.77554756 Ry
     estimated scf accuracy    <       0.00000356 Ry

     iteration #  7     ecut=    50.00 Ry     beta= 0.70
     Davidson diagonalization with overlap

---- Real-time Memory Report at c_bands before calling an iterative solver
           132 MiB given to the printing process from OS
             0 MiB allocation reported by mallinfo(arena+hblkhd)
         53255 MiB available memory on the node where the printing process lives
------------------
     ethr =  6.13E-09,  avg # of iterations =  2.2

     total cpu time spent up to now is        3.6 secs

     total energy              =    -552.77554877 Ry
     estimated scf accuracy    <       0.00000056 Ry

     iteration #  8     ecut=    50.00 Ry     beta= 0.70
     Davidson diagonalization with overlap

---- Real-time Memory Report at c_bands before calling an iterative solver
           133 MiB given to the printing process from OS
             0 MiB allocation reported by mallinfo(arena+hblkhd)
         53250 MiB available memory on the node where the printing process lives
------------------
     ethr =  9.70E-10,  avg # of iterations =  2.0

     total cpu time spent up to now is        4.0 secs

     total energy              =    -552.77554884 Ry
     estimated scf accuracy    <       0.00000005 Ry

     iteration #  9     ecut=    50.00 Ry     beta= 0.70
     Davidson diagonalization with overlap

---- Real-time Memory Report at c_bands before calling an iterative solver
           133 MiB given to the printing process from OS
             0 MiB allocation reported by mallinfo(arena+hblkhd)
         53248 MiB available memory on the node where the printing process lives
------------------
     ethr =  7.98E-11,  avg # of iterations =  3.3

     total cpu time spent up to now is        4.5 secs

     total energy              =    -552.77554884 Ry
     estimated scf accuracy    <          3.1E-09 Ry

     iteration # 10     ecut=    50.00 Ry     beta= 0.70
     Davidson diagonalization with overlap

---- Real-time Memory Report at c_bands before calling an iterative solver
           134 MiB given to the printing process from OS
             0 MiB allocation reported by mallinfo(arena+hblkhd)
         53245 MiB available memory on the node where the printing process lives
------------------
     ethr =  5.39E-12,  avg # of iterations =  2.2

     total cpu time spent up to now is        4.9 secs

     End of self-consistent calculation

          k = 0.0000 0.0000 0.0000 (  2697 PWs)   bands (ev):

   -79.3760 -79.3760 -79.3747 -79.3747 -46.2185 -46.2185 -46.2078 -46.2078
   -32.7752 -32.7752 -32.7701 -32.7701 -32.5989 -32.5989 -32.5683 -32.5683
    -7.2429  -7.2429  -6.1093  -6.1093  -5.2007  -5.2007  -5.0009  -5.0009
     4.1964   4.1964   4.4567   4.4567   6.0134   6.0134   6.1249   6.1249
     6.2327   6.2327   8.7515   8.7515   8.8755   8.8755   9.1355   9.1355
    10.3203  10.3203  10.9356  10.9356  10.9708  10.9708  10.9766  10.9766
    11.2424  11.2424  11.4432  11.4432  11.6114  11.6114  11.6563  11.6563
    12.0732  12.0732  14.6309  14.6309  15.0958  15.0958  17.7057  17.7057
    17.8576  17.8576  18.0754  18.0754  19.4610  19.4610

     occupation numbers 
     1.0000   1.0000   1.0000   1.0000   1.0000   1.0000   1.0000   1.0000
     1.0000   1.0000   1.0000   1.0000   1.0000   1.0000   1.0000   1.0000
     1.0000   1.0000   1.0000   1.0000   1.0000   1.0000   1.0000   1.0000
     1.0000   1.0000   1.0000   1.0000   1.0000   1.0000   1.0000   1.0000
     1.0000   1.0000   1.0000   1.0000   1.0000   1.0000   1.0000   1.0000
     1.0000   1.0000   1.0000   1.0000   1.0000   1.0000   1.0000   1.0000
     1.0000   1.0000   1.0000   1.0000   1.0000   1.0000   1.0000   1.0000
     1.0000   1.0000  -0.0000  -0.0000  -0.0000  -0.0000  -0.0000  -0.0000
    -0.0000  -0.0000  -0.0000  -0.0000  -0.0000  -0.0000

          k = 0.0000 0.0000-0.7124 (  2662 PWs)   bands (ev):

   -79.3730 -79.3730 -79.3730 -79.3730 -46.2246 -46.2246 -46.2246 -46.2246
   -32.8383 -32.8383 -32.8383 -32.8383 -32.5884 -32.5884 -32.5884 -32.5884
    -5.9157  -5.9157  -5.9157  -5.9157  -5.5891  -5.5891  -5.5891  -5.5891
     5.6992   5.6992   5.6992   5.6992   6.6690   6.6690   6.6690   6.6690
     7.0670   7.0670   7.0670   7.0670   8.1640   8.1640   8.1640   8.1640
     8.5413   8.5413   8.5413   8.5413   9.9471   9.9471   9.9471   9.9471
    11.8915  11.8915  11.8915  11.8915  13.1061  13.1061  13.1061  13.1061
    14.1083  14.1083  14.1083  14.1083  16.0831  16.0831  16.0831  16.0831
    16.6183  16.6183  16.6183  16.6183  22.9834  22.9834

     occupation numbers 
     1.0000   1.0000   1.0000   1.0000   1.0000   1.0000   1.0000   1.0000
     1.0000   1.0000   1.0000   1.0000   1.0000   1.0000   1.0000   1.0000
     1.0000   1.0000   1.0000   1.0000   1.0000   1.0000   1.0000   1.0000
     1.0000   1.0000   1.0000   1.0000   1.0000   1.0000   1.0000   1.0000
     1.0000   1.0000   1.0000   1.0000   1.0000   1.0000   1.0000   1.0000
     1.0000   1.0000   1.0000   1.0000   1.0000   1.0000   1.0000   1.0000
     1.0000   1.0000   1.0000   1.0000   1.0000   1.0000   1.0000   1.0000
     0.1572   0.1572   0.1572   0.1572  -0.0000  -0.0000  -0.0000  -0.0000
    -0.0000  -0.0000  -0.0000  -0.0000  -0.0000  -0.0000

          k = 0.0000-0.5000 0.0000 (  2656 PWs)   bands (ev):

   -79.3753 -79.3753 -79.3753 -79.3753 -46.2132 -46.2132 -46.2132 -46.2132
   -32.7706 -32.7706 -32.7706 -32.7706 -32.5862 -32.5862 -32.5862 -32.5862
    -6.4563  -6.4563  -6.4563  -6.4563  -5.4515  -5.4515  -5.4515  -5.4515
     5.5692   5.5692   5.5692   5.5692   6.2255   6.2255   6.2255   6.2255
     7.2118   7.2118   7.2118   7.2118   7.8734   7.8734   7.8734   7.8734
     8.7527   8.7527   8.7527   8.7527  10.8015  10.8015  10.8015  10.8015
    12.1626  12.1626  12.1626  12.1626  12.4866  12.4866  12.4866  12.4866
    13.6744  13.6744  13.6744  13.6744  17.2339  17.2339  17.2339  17.2339
    17.5350  17.5350  17.5350  17.5350  20.7774  20.7774

     occupation numbers 
     1.0000   1.0000   1.0000   1.0000   1.0000   1.0000   1.0000   1.0000
     1.0000   1.0000   1.0000   1.0000   1.0000   1.0000   1.0000   1.0000
     1.0000   1.0000   1.0000   1.0000   1.0000   1.0000   1.0000   1.0000
     1.0000   1.0000   1.0000   1.0000   1.0000   1.0000   1.0000   1.0000
     1.0000   1.0000   1.0000   1.0000   1.0000   1.0000   1.0000   1.0000
     1.0000   1.0000   1.0000   1.0000   1.0000   1.0000   1.0000   1.0000
     1.0000   1.0000   1.0000   1.0000   1.0000   1.0000   1.0000   1.0000
     1.0000   1.0000   1.0000   1.0000  -0.0000  -0.0000  -0.0000  -0.0000
    -0.0000  -0.0000  -0.0000  -0.0000  -0.0000  -0.0000

          k = 0.0000-0.5000-0.7124 (  2664 PWs)   bands (ev):

   -79.3730 -79.3730 -79.3730 -79.3730 -46.2256 -46.2256 -46.2236 -46.2236
   -32.8532 -32.8532 -32.8242 -32.8242 -32.5974 -32.5974 -32.5794 -32.5794
    -6.0081  -6.0081  -6.0077  -6.0077  -5.5596  -5.5596  -5.3979  -5.3979
     5.4271   5.4271   5.4688   5.4688   6.1783   6.1783   6.1787   6.1787
     7.4753   7.4753   8.0153   8.0153   8.4724   8.4724   8.6225   8.6225
     8.8086   8.8086   8.9032   8.9032  10.5774  10.5774  10.5890  10.5890
    11.0644  11.0644  11.0721  11.0721  11.9005  11.9005  12.2412  12.2412
    14.1712  14.1712  14.5137  14.5137  14.9966  14.9966  15.0515  15.0515
    18.2698  18.2698  18.4424  18.4424  23.1560  23.1560

     occupation numbers 
     1.0000   1.0000   1.0000   1.0000   1.0000   1.0000   1.0000   1.0000
     1.0000   1.0000   1.0000   1.0000   1.0000   1.0000   1.0000   1.0000
     1.0000   1.0000   1.0000   1.0000   1.0000   1.0000   1.0000   1.0000
     1.0000   1.0000   1.0000   1.0000   1.0000   1.0000   1.0000   1.0000
     1.0000   1.0000   1.0000   1.0000   1.0000   1.0000   1.0000   1.0000
     1.0000   1.0000   1.0000   1.0000   1.0000   1.0000   1.0000   1.0000
     1.0000   1.0000   1.0000   1.0000   1.0000   1.0000   1.0000   1.0000
    -0.0326  -0.0326  -0.0000  -0.0000  -0.0000  -0.0000  -0.0000  -0.0000
    -0.0000  -0.0000  -0.0000  -0.0000  -0.0000  -0.0000

          k =-0.5000-0.5000 0.0000 (  2668 PWs)   bands (ev):

   -79.3753 -79.3753 -79.3753 -79.3753 -46.2132 -46.2132 -46.2132 -46.2132
   -32.7727 -32.7727 -32.7727 -32.7727 -32.5844 -32.5844 -32.5844 -32.5844
    -6.5889  -6.5889  -6.5889  -6.5889  -5.2266  -5.2266  -5.2266  -5.2266
     4.3359   4.3359   4.3359   4.3359   5.9927   5.9927   5.9927   5.9927
     8.7305   8.7305   8.7305   8.7305   8.7399   8.7399   8.7399   8.7399
     9.5911   9.5911   9.5911   9.5911  10.3213  10.3213  10.3213  10.3213
    11.1271  11.1271  11.1271  11.1271  11.7505  11.7505  11.7505  11.7505
    14.0876  14.0876  14.0876  14.0876  16.2106  16.2106  16.2106  16.2106
    17.9572  17.9572  17.9572  17.9572  22.4395  22.8239

     occupation numbers 
     1.0000   1.0000   1.0000   1.0000   1.0000   1.0000   1.0000   1.0000
     1.0000   1.0000   1.0000   1.0000   1.0000   1.0000   1.0000   1.0000
     1.0000   1.0000   1.0000   1.0000   1.0000   1.0000   1.0000   1.0000
     1.0000   1.0000   1.0000   1.0000   1.0000   1.0000   1.0000   1.0000
     1.0000   1.0000   1.0000   1.0000   1.0000   1.0000   1.0000   1.0000
     1.0000   1.0000   1.0000   1.0000   1.0000   1.0000   1.0000   1.0000
     1.0000   1.0000   1.0000   1.0000   1.0000   1.0000   1.0000   1.0000
     0.3753   0.3753   0.3753   0.3753  -0.0000  -0.0000  -0.0000  -0.0000
    -0.0000  -0.0000  -0.0000  -0.0000  -0.0000  -0.0000

          k =-0.5000-0.5000-0.7124 (  2664 PWs)   bands (ev):

   -79.3730 -79.3730 -79.3730 -79.3730 -46.2247 -46.2247 -46.2247 -46.2247
   -32.8385 -32.8385 -32.8385 -32.8385 -32.5890 -32.5890 -32.5890 -32.5890
    -5.8152  -5.8152  -5.8152  -5.8152  -5.6645  -5.6645  -5.6645  -5.6645
     5.6875   5.6875   5.6875   5.6875   6.2089   6.2089   6.2089   6.2089
     6.6527   6.6527   6.6527   6.6527   8.2180   8.2180   8.2180   8.2180
     9.6609   9.6609   9.6609   9.6609  10.6735  10.6735  10.6735  10.6735
    11.9374  11.9374  11.9374  11.9374  12.6364  12.6364  12.6364  12.6364
    13.4284  13.4284  13.4284  13.4284  16.0567  16.0567  16.0567  16.0567
    17.0434  17.0434  17.0434  17.0434  23.0900  23.0900

     occupation numbers 
     1.0000   1.0000   1.0000   1.0000   1.0000   1.0000   1.0000   1.0000
     1.0000   1.0000   1.0000   1.0000   1.0000   1.0000   1.0000   1.0000
     1.0000   1.0000   1.0000   1.0000   1.0000   1.0000   1.0000   1.0000
     1.0000   1.0000   1.0000   1.0000   1.0000   1.0000   1.0000   1.0000
     1.0000   1.0000   1.0000   1.0000   1.0000   1.0000   1.0000   1.0000
     1.0000   1.0000   1.0000   1.0000   1.0000   1.0000   1.0000   1.0000
     1.0000   1.0000   1.0000   1.0000   1.0000   1.0000   1.0000   1.0000
     1.0000   1.0000   1.0000   1.0000  -0.0000  -0.0000  -0.0000  -0.0000
    -0.0000  -0.0000  -0.0000  -0.0000  -0.0000  -0.0000

     the Fermi energy is    14.0775 ev

!    total energy              =    -552.77554884 Ry
     estimated scf accuracy    <          3.4E-10 Ry
     smearing contrib. (-TS)   =      -0.00035154 Ry
     internal energy E=F+TS    =    -552.77519730 Ry

     The total energy is F=E-TS. E is the sum of the following terms:
     one-electron contribution =    -190.19914433 Ry
     hartree contribution      =     122.23182552 Ry
     xc contribution           =     -69.82186796 Ry
     ewald contribution        =    -414.98601053 Ry

     convergence has been achieved in  10 iterations

     Forces acting on atoms (cartesian axes, Ry/au):

     atom    1 type  2   force =     0.00000000    0.00000000   -0.00000000
     atom    2 type  2   force =     0.00000000    0.00000000    0.00000000
     atom    3 type  1   force =    -0.01936259    0.01936259    0.00000000
     atom    4 type  1   force =     0.01936259    0.01936259   -0.00000000
     atom    5 type  1   force =    -0.01936259   -0.01936259   -0.00000000
     atom    6 type  1   force =     0.01936259   -0.01936259    0.00000000
     The non-local contrib.  to forces
     atom    1 type  2   force =     0.00000000    0.00000000    0.00000000
     atom    2 type  2   force =     0.00000000    0.00000000    0.00000000
     atom    3 type  1   force =    -0.13145412    0.13145412    0.00000000
     atom    4 type  1   force =     0.13145412    0.13145412    0.00000000
     atom    5 type  1   force =    -0.13145412   -0.13145412    0.00000000
     atom    6 type  1   force =     0.13145412   -0.13145412    0.00000000
     The ionic contribution  to forces
     atom    1 type  2   force =    -0.00000000   -0.00000000    0.00000000
     atom    2 type  2   force =     0.00000000    0.00000000   -0.00000000
     atom    3 type  1   force =     1.42937233   -1.42937233    0.00000000
     atom    4 type  1   force =    -1.42937233   -1.42937233    0.00000000
     atom    5 type  1   force =     1.42937233    1.42937233    0.00000000
     atom    6 type  1   force =    -1.42937233    1.42937233    0.00000000
     The local contribution  to forces
     atom    1 type  2   force =    -0.00000000   -0.00000000   -0.00000000
     atom    2 type  2   force =     0.00000000    0.00000000    0.00000000
     atom    3 type  1   force =    -1.31728022    1.31728022    0.00000000
     atom    4 type  1   force =     1.31728022    1.31728022    0.00000000
     atom    5 type  1   force =    -1.31728022   -1.31728022    0.00000000
     atom    6 type  1   force =     1.31728022   -1.31728022    0.00000000
     The core correction contribution to forces
     atom    1 type  2   force =     0.00000000    0.00000000    0.00000000
     atom    2 type  2   force =     0.00000000    0.00000000    0.00000000
     atom    3 type  1   force =     0.00000000    0.00000000    0.00000000
     atom    4 type  1   force =     0.00000000    0.00000000    0.00000000
     atom    5 type  1   force =     0.00000000    0.00000000    0.00000000
     atom    6 type  1   force =     0.00000000    0.00000000    0.00000000
     The Hubbard contrib.    to forces
     atom    1 type  2   force =     0.00000000    0.00000000    0.00000000
     atom    2 type  2   force =     0.00000000    0.00000000    0.00000000
     atom    3 type  1   force =     0.00000000    0.00000000    0.00000000
     atom    4 type  1   force =     0.00000000    0.00000000    0.00000000
     atom    5 type  1   force =     0.00000000    0.00000000    0.00000000
     atom    6 type  1   force =     0.00000000    0.00000000    0.00000000
     The SCF correction term to forces
     atom    1 type  2   force =     0.00000000   -0.00000000    0.00000000
     atom    2 type  2   force =    -0.00000000    0.00000000    0.00000000
     atom    3 type  1   force =    -0.00000059    0.00000059   -0.00000000
     atom    4 type  1   force =     0.00000059    0.00000059   -0.00000000
     atom    5 type  1   force =    -0.00000059   -0.00000059   -0.00000000
     atom    6 type  1   force =     0.00000059   -0.00000059   -0.00000000

     Total force =     0.054766     Total SCF correction =     0.000002


     Computing stress (Cartesian axis) and pressure

          total   stress  (Ry/bohr**3)                   (kbar)     P=     -505.42
  -0.00333538   0.00000000   0.00000000         -490.65        0.00        0.00
   0.00000000  -0.00333538   0.00000000            0.00     -490.65        0.00
   0.00000000   0.00000000  -0.00363665            0.00        0.00     -534.97

     kinetic stress (kbar)  48102.58      0.00      0.00
                                0.00  48102.58      0.00
                                0.00      0.00  47141.74

     local   stress (kbar) -12750.45     -0.00      0.00
                               -0.00 -12750.45      0.00
                                0.00      0.00 -44311.79

     nonloc. stress (kbar)  14499.88      0.00      0.00
                                0.00  14499.88      0.00
                                0.00      0.00  14605.19

     hartree stress (kbar)   9572.05     -0.00     -0.00
                               -0.00   9572.05     -0.00
                               -0.00     -0.00  21290.93

     exc-cor stress (kbar)  -7278.50      0.00     -0.00
                                0.00  -7278.50      0.00
                               -0.00      0.00  -7253.58

     corecor stress (kbar)      0.00      0.00      0.00
                                0.00      0.00      0.00
                                0.00      0.00      0.00

     ewald   stress (kbar) -52636.21      0.00     -0.00
                                0.00 -52636.21     -0.00
                               -0.00     -0.00 -32007.45

     hubbard stress (kbar)      0.00      0.00      0.00
                                0.00      0.00      0.00
                                0.00      0.00      0.00

     DFT-D   stress (kbar)      0.00      0.00      0.00
                                0.00      0.00      0.00
                                0.00      0.00      0.00

     XDM     stress (kbar)      0.00      0.00      0.00
                                0.00      0.00      0.00
                                0.00      0.00      0.00

     dft-nl  stress (kbar)      0.00      0.00      0.00
                                0.00      0.00      0.00
                                0.00      0.00      0.00

     TS-vdW  stress (kbar)      0.00      0.00      0.00
                                0.00      0.00      0.00
                                0.00      0.00      0.00


                                0.00      0.00      0.00
                                0.00      0.00      0.00


                                0.00      0.00      0.00


     Writing all to output data dir tmp/espresso.save/
 
     init_run     :      0.16s CPU      0.18s WALL (       1 calls)
     electrons    :      4.45s CPU      4.72s WALL (       1 calls)
     forces       :      0.34s CPU      0.34s WALL (       1 calls)
     stress       :      0.76s CPU      0.76s WALL (       1 calls)

     Called by init_run:
     wfcinit      :      0.12s CPU      0.14s WALL (       1 calls)
     wfcinit:atom :      0.00s CPU      0.00s WALL (       6 calls)
     wfcinit:wfcr :      0.11s CPU      0.13s WALL (       6 calls)
     potinit      :      0.01s CPU      0.01s WALL (       1 calls)
     hinit0       :      0.02s CPU      0.03s WALL (       1 calls)

     Called by electrons:
     c_bands      :      4.02s CPU      4.25s WALL (      10 calls)
     sum_band     :      0.39s CPU      0.42s WALL (      10 calls)
     v_of_rho     :      0.02s CPU      0.02s WALL (      11 calls)
     v_h          :      0.00s CPU      0.00s WALL (      11 calls)
     v_xc         :      0.02s CPU      0.02s WALL (      11 calls)
     mix_rho      :      0.02s CPU      0.02s WALL (      10 calls)

     Called by c_bands:
     init_us_2    :      0.03s CPU      0.04s WALL (     138 calls)
     init_us_2:cp :      0.03s CPU      0.04s WALL (     138 calls)
     cegterg      :      3.27s CPU      3.49s WALL (      60 calls)

     Called by sum_band:
     sum_band:wei :      0.00s CPU      0.00s WALL (      10 calls)
     sum_band:loo :      0.38s CPU      0.41s WALL (      10 calls)
     sum_band:buf :      0.01s CPU      0.01s WALL (      60 calls)
     sum_band:ini :      0.01s CPU      0.01s WALL (      60 calls)

     Called by *egterg:
     cdiaghg      :      0.60s CPU      0.60s WALL (     216 calls)
     cegterg:over :      0.17s CPU      0.18s WALL (     156 calls)
     cegterg:upda :      0.09s CPU      0.09s WALL (     156 calls)
     cegterg:last :      0.13s CPU      0.13s WALL (     119 calls)
     h_psi        :      2.28s CPU      2.49s WALL (     222 calls)
     g_psi        :      0.01s CPU      0.01s WALL (     156 calls)

     Called by h_psi:
     h_psi:calbec :      0.18s CPU      0.19s WALL (     222 calls)
     vloc_psi     :      1.66s CPU      1.86s WALL (     222 calls)
     add_vuspsi   :      0.42s CPU      0.42s WALL (     222 calls)

     General routines
     calbec       :      0.21s CPU      0.23s WALL (     252 calls)
     fft          :      0.02s CPU      0.02s WALL (     150 calls)
     ffts         :      0.00s CPU      0.00s WALL (      40 calls)
     fftw         :      1.71s CPU      1.90s WALL (   52332 calls)
 
     Parallel routines
 
     PWSCF        :      5.78s CPU      6.10s WALL

 
   This run was terminated on:  14:57:16   8Apr2022            

=------------------------------------------------------------------------------=
   JOB DONE.
=------------------------------------------------------------------------------=
