
     Program PWSCF v.7.0 starts on  8Apr2022 at 14:57:31 

     This program is part of the open-source Quantum ESPRESSO suite
     for quantum simulation of materials; please cite
         "P. Giannozzi et al., J. Phys.:Condens. Matter 21 395502 (2009);
         "P. Giannozzi et al., J. Phys.:Condens. Matter 29 465901 (2017);
         "P. Giannozzi et al., J. Chem. Phys. 152 154105 (2020);
          URL http://www.quantum-espresso.org", 
     in publications or presentations arising from this work. More details at
     http://www.quantum-espresso.org/quote

     Parallel version (MPI), running on     8 processors

     MPI processes distributed on     1 nodes
     R & G space division:  proc/nbgrp/npool/nimage =       8
     53644 MiB available memory on the printing compute node when the environment starts
 
     Reading input from basis_80.pwi
Warning: card &CELL ignored
Warning: card / ignored

     Current dimensions of program PWSCF are:
     Max number of different atomic species (ntypx) = 10
     Max number of k-points (npk) =  40000
     Max angular momentum in pseudopotentials (lmaxx) =  4

     Subspace diagonalization in iterative solution of the eigenvalue problem:
     a serial algorithm will be used

 
     Parallelization info
     --------------------
     sticks:   dense  smooth     PW     G-vecs:    dense   smooth      PW
     Min         235     235     69                 5374     5374     851
     Max         237     237     70                 5375     5375     854
     Sum        1885    1885    553                42999    42999    6811
 
     Using Slab Decomposition
 

     Title: 
     IrO2 Unit Cell                                                             


     bravais-lattice index     =            6
     lattice parameter (alat)  =       8.5888  a.u.
     unit-cell volume          =     444.6868 (a.u.)^3
     number of atoms/cell      =            6
     number of atomic types    =            2
     number of electrons       =        58.00
     number of Kohn-Sham states=           70
     kinetic-energy cutoff     =      80.0000  Ry
     charge density cutoff     =     320.0000  Ry
     scf convergence threshold =      1.0E-09
     mixing beta               =       0.7000
     number of iterations used =            8  plain     mixing
     Exchange-correlation= PBE
                           (   1   4   3   4   0   0   0)
     Non magnetic calculation with spin-orbit


     celldm(1)=   8.588800  celldm(2)=   0.000000  celldm(3)=   0.701870
     celldm(4)=   0.000000  celldm(5)=   0.000000  celldm(6)=   0.000000

     crystal axes: (cart. coord. in units of alat)
               a(1) = (   1.000000   0.000000   0.000000 )  
               a(2) = (   0.000000   1.000000   0.000000 )  
               a(3) = (   0.000000   0.000000   0.701870 )  

     reciprocal axes: (cart. coord. in units 2 pi/alat)
               b(1) = (  1.000000  0.000000  0.000000 )  
               b(2) = (  0.000000  1.000000  0.000000 )  
               b(3) = (  0.000000  0.000000  1.424765 )  


     PseudoPot. # 1 for O  read from file:
     ../../XX_PSEUDO/O_ONCV_PBE_fr.upf
     MD5 check sum: 59c925217d3b58c6d762355590b68b09
     Pseudo is Norm-conserving, Zval =  6.0
     Generated using ONCVPSP code by D. R. Hamann
     Using radial grid of  936 points,  6 beta functions with: 
                l(1) =   0
                l(2) =   0
                l(3) =   1
                l(4) =   1
                l(5) =   1
                l(6) =   1

     PseudoPot. # 2 for Ir read from file:
     ../../XX_PSEUDO/Ir_ONCV_PBE_fr.upf
     MD5 check sum: 924e909c4146afa09f62ee3401806954
     Pseudo is Norm-conserving, Zval = 17.0
     Generated using ONCVPSP code by D. R. Hamann
     Using radial grid of 1310 points, 14 beta functions with: 
                l(1) =   0
                l(2) =   0
                l(3) =   1
                l(4) =   1
                l(5) =   1
                l(6) =   1
                l(7) =   2
                l(8) =   2
                l(9) =   2
               l(10) =   2
               l(11) =   3
               l(12) =   3
               l(13) =   3
               l(14) =   3

     atomic species   valence    mass     pseudopotential
        O              6.00    15.99900     O ( 1.00)
        Ir            17.00   192.21700     Ir( 1.00)

     16 Sym. Ops., with inversion, found ( 8 have fractional translation)


                                    s                        frac. trans.

      isym =  1     identity                                     

 cryst.   s( 1) = (     1          0          0      )
                  (     0          1          0      )
                  (     0          0          1      )

 cart.    s( 1) = (  1.0000000  0.0000000  0.0000000 )
                  (  0.0000000  1.0000000  0.0000000 )
                  (  0.0000000  0.0000000  1.0000000 )


      isym =  2     180 deg rotation - cart. axis [0,0,1]        

 cryst.   s( 2) = (    -1          0          0      )
                  (     0         -1          0      )
                  (     0          0          1      )

 cart.    s( 2) = ( -1.0000000  0.0000000  0.0000000 )
                  (  0.0000000 -1.0000000  0.0000000 )
                  (  0.0000000  0.0000000  1.0000000 )


      isym =  3     180 deg rotation - cart. axis [0,1,0]        

 cryst.   s( 3) = (    -1          0          0      )    f =(  0.5000000 )
                  (     0          1          0      )       ( -0.5000000 )
                  (     0          0         -1      )       (  0.5000000 )

 cart.    s( 3) = ( -1.0000000  0.0000000  0.0000000 )    f =(  0.5000000 )
                  (  0.0000000  1.0000000  0.0000000 )       ( -0.5000000 )
                  (  0.0000000  0.0000000 -1.0000000 )       (  0.3509351 )


      isym =  4     180 deg rotation - cart. axis [1,0,0]        

 cryst.   s( 4) = (     1          0          0      )    f =( -0.5000000 )
                  (     0         -1          0      )       (  0.5000000 )
                  (     0          0         -1      )       (  0.5000000 )

 cart.    s( 4) = (  1.0000000  0.0000000  0.0000000 )    f =( -0.5000000 )
                  (  0.0000000 -1.0000000  0.0000000 )       (  0.5000000 )
                  (  0.0000000  0.0000000 -1.0000000 )       (  0.3509351 )


      isym =  5     180 deg rotation - cart. axis [1,1,0]        

 cryst.   s( 5) = (     0          1          0      )
                  (     1          0          0      )
                  (     0          0         -1      )

 cart.    s( 5) = (  0.0000000  1.0000000  0.0000000 )
                  (  1.0000000  0.0000000  0.0000000 )
                  (  0.0000000  0.0000000 -1.0000000 )


      isym =  6     180 deg rotation - cart. axis [1,-1,0]       

 cryst.   s( 6) = (     0         -1          0      )
                  (    -1          0          0      )
                  (     0          0         -1      )

 cart.    s( 6) = (  0.0000000 -1.0000000  0.0000000 )
                  ( -1.0000000  0.0000000  0.0000000 )
                  (  0.0000000  0.0000000 -1.0000000 )


      isym =  7      90 deg rotation - cart. axis [0,0,-1]       

 cryst.   s( 7) = (     0         -1          0      )    f =( -0.5000000 )
                  (     1          0          0      )       (  0.5000000 )
                  (     0          0          1      )       ( -0.5000000 )

 cart.    s( 7) = (  0.0000000  1.0000000  0.0000000 )    f =( -0.5000000 )
                  ( -1.0000000  0.0000000  0.0000000 )       (  0.5000000 )
                  (  0.0000000  0.0000000  1.0000000 )       ( -0.3509351 )


      isym =  8      90 deg rotation - cart. axis [0,0,1]        

 cryst.   s( 8) = (     0          1          0      )    f =(  0.5000000 )
                  (    -1          0          0      )       ( -0.5000000 )
                  (     0          0          1      )       ( -0.5000000 )

 cart.    s( 8) = (  0.0000000 -1.0000000  0.0000000 )    f =(  0.5000000 )
                  (  1.0000000  0.0000000  0.0000000 )       ( -0.5000000 )
                  (  0.0000000  0.0000000  1.0000000 )       ( -0.3509351 )


      isym =  9     inversion                                    

 cryst.   s( 9) = (    -1          0          0      )
                  (     0         -1          0      )
                  (     0          0         -1      )

 cart.    s( 9) = ( -1.0000000  0.0000000  0.0000000 )
                  (  0.0000000 -1.0000000  0.0000000 )
                  (  0.0000000  0.0000000 -1.0000000 )


      isym = 10     inv. 180 deg rotation - cart. axis [0,0,1]   

 cryst.   s(10) = (     1          0          0      )
                  (     0          1          0      )
                  (     0          0         -1      )

 cart.    s(10) = (  1.0000000  0.0000000  0.0000000 )
                  (  0.0000000  1.0000000  0.0000000 )
                  (  0.0000000  0.0000000 -1.0000000 )


      isym = 11     inv. 180 deg rotation - cart. axis [0,1,0]   

 cryst.   s(11) = (     1          0          0      )    f =( -0.5000000 )
                  (     0         -1          0      )       (  0.5000000 )
                  (     0          0          1      )       ( -0.5000000 )

 cart.    s(11) = (  1.0000000  0.0000000  0.0000000 )    f =( -0.5000000 )
                  (  0.0000000 -1.0000000  0.0000000 )       (  0.5000000 )
                  (  0.0000000  0.0000000  1.0000000 )       ( -0.3509351 )


      isym = 12     inv. 180 deg rotation - cart. axis [1,0,0]   

 cryst.   s(12) = (    -1          0          0      )    f =(  0.5000000 )
                  (     0          1          0      )       ( -0.5000000 )
                  (     0          0          1      )       ( -0.5000000 )

 cart.    s(12) = ( -1.0000000  0.0000000  0.0000000 )    f =(  0.5000000 )
                  (  0.0000000  1.0000000  0.0000000 )       ( -0.5000000 )
                  (  0.0000000  0.0000000  1.0000000 )       ( -0.3509351 )


      isym = 13     inv. 180 deg rotation - cart. axis [1,1,0]   

 cryst.   s(13) = (     0         -1          0      )
                  (    -1          0          0      )
                  (     0          0          1      )

 cart.    s(13) = (  0.0000000 -1.0000000  0.0000000 )
                  ( -1.0000000  0.0000000  0.0000000 )
                  (  0.0000000  0.0000000  1.0000000 )


      isym = 14     inv. 180 deg rotation - cart. axis [1,-1,0]  

 cryst.   s(14) = (     0          1          0      )
                  (     1          0          0      )
                  (     0          0          1      )

 cart.    s(14) = (  0.0000000  1.0000000  0.0000000 )
                  (  1.0000000  0.0000000  0.0000000 )
                  (  0.0000000  0.0000000  1.0000000 )


      isym = 15     inv.  90 deg rotation - cart. axis [0,0,-1]  

 cryst.   s(15) = (     0          1          0      )    f =(  0.5000000 )
                  (    -1          0          0      )       ( -0.5000000 )
                  (     0          0         -1      )       (  0.5000000 )

 cart.    s(15) = (  0.0000000 -1.0000000  0.0000000 )    f =(  0.5000000 )
                  (  1.0000000  0.0000000  0.0000000 )       ( -0.5000000 )
                  (  0.0000000  0.0000000 -1.0000000 )       (  0.3509351 )


      isym = 16     inv.  90 deg rotation - cart. axis [0,0,1]   

 cryst.   s(16) = (     0         -1          0      )    f =( -0.5000000 )
                  (     1          0          0      )       (  0.5000000 )
                  (     0          0         -1      )       (  0.5000000 )

 cart.    s(16) = (  0.0000000  1.0000000  0.0000000 )    f =( -0.5000000 )
                  ( -1.0000000  0.0000000  0.0000000 )       (  0.5000000 )
                  (  0.0000000  0.0000000 -1.0000000 )       (  0.3509351 )


     double point group D_4h(4/mmm)
     there are 14 classes and  4 irreducible representations
     the character table:

       E     -E    2C4   -2C4   C2    2C2' 2C2'' i     -i    2S4   -2S4   s_h 
                               -C2   -2C2' -2C2'                         -s_h 
G_6+   2.00 -2.00  1.41 -1.41  0.00  0.00  0.00  2.00 -2.00  1.41 -1.41  0.00
G_7+   2.00 -2.00 -1.41  1.41  0.00  0.00  0.00  2.00 -2.00 -1.41  1.41  0.00
G_6-   2.00 -2.00  1.41 -1.41  0.00  0.00  0.00 -2.00  2.00 -1.41  1.41  0.00
G_7-   2.00 -2.00 -1.41  1.41  0.00  0.00  0.00 -2.00  2.00  1.41 -1.41  0.00

        2s_v  2s_d
       -2s_v -2s_d
G_6+   0.00  0.00
G_7+   0.00  0.00
G_6-   0.00  0.00
G_7-   0.00  0.00

     the symmetry operations in each class and the name of the first element:

     E             1
          identity                                               
     -E           -1
          identity E                                             
     2C4           7    8
           90 deg rotation - cart. axis [0,0,-1]                 
     -2C4         -7   -8
           90 deg rotation - cart. axis [0,0,-1] E               
      C2  -C2      2   -2
          180 deg rotation - cart. axis [0,0,1]                  
      2C2'-2C2'    3   -3    4   -4
          180 deg rotation - cart. axis [0,1,0]                  
     2C2''-2C2'    5   -5   -6    6
          180 deg rotation - cart. axis [1,1,0]                  
     i             9
          inversion                                              
     -i           -9
          inversion E                                            
     2S4          15   16
          inv.  90 deg rotation - cart. axis [0,0,-1]            
     -2S4        -15  -16
          inv.  90 deg rotation - cart. axis [0,0,-1] E          
      s_h -s_h    10  -10
          inv. 180 deg rotation - cart. axis [0,0,1]             
      2s_v-2s_v   11  -11   12  -12
          inv. 180 deg rotation - cart. axis [0,1,0]             
      2s_d-2s_d   13  -13  -14   14
          inv. 180 deg rotation - cart. axis [1,1,0]             

   Cartesian axes

     site n.     atom                  positions (alat units)
         1           Ir  tau(   1) = (   0.0000000   0.0000000   0.0000000  )
         2           Ir  tau(   2) = (   0.5000000   0.5000000   0.3509351  )
         3           O   tau(   3) = (   0.1916000   0.8084000   0.3509351  )
         4           O   tau(   4) = (   0.3084000   0.3084000   0.0000000  )
         5           O   tau(   5) = (   0.6916000   0.6916000   0.0000000  )
         6           O   tau(   6) = (   0.8084000   0.1916000   0.3509351  )

   Crystallographic axes

     site n.     atom                  positions (cryst. coord.)
         1           Ir  tau(   1) = (  0.0000000  0.0000000  0.0000000  )
         2           Ir  tau(   2) = (  0.5000000  0.5000000  0.5000000  )
         3           O   tau(   3) = (  0.1916000  0.8084000  0.5000000  )
         4           O   tau(   4) = (  0.3084000  0.3084000  0.0000000  )
         5           O   tau(   5) = (  0.6916000  0.6916000  0.0000000  )
         6           O   tau(   6) = (  0.8084000  0.1916000  0.5000000  )

     number of k points=     6  Methfessel-Paxton smearing, width (Ry)=  0.0050
                       cart. coord. in units 2pi/alat
        k(    1) = (   0.0000000   0.0000000   0.0000000), wk =   0.1250000
        k(    2) = (   0.0000000   0.0000000  -0.7123824), wk =   0.1250000
        k(    3) = (   0.0000000  -0.5000000   0.0000000), wk =   0.2500000
        k(    4) = (   0.0000000  -0.5000000  -0.7123824), wk =   0.2500000
        k(    5) = (  -0.5000000  -0.5000000   0.0000000), wk =   0.1250000
        k(    6) = (  -0.5000000  -0.5000000  -0.7123824), wk =   0.1250000

                       cryst. coord.
        k(    1) = (   0.0000000   0.0000000   0.0000000), wk =   0.1250000
        k(    2) = (   0.0000000   0.0000000  -0.5000000), wk =   0.1250000
        k(    3) = (   0.0000000  -0.5000000   0.0000000), wk =   0.2500000
        k(    4) = (   0.0000000  -0.5000000  -0.5000000), wk =   0.2500000
        k(    5) = (  -0.5000000  -0.5000000   0.0000000), wk =   0.1250000
        k(    6) = (  -0.5000000  -0.5000000  -0.5000000), wk =   0.1250000

     Dense  grid:    42999 G-vectors     FFT dimensions: (  50,  50,  36)

     Dynamical RAM for                 wfc:       1.43 MB

     Dynamical RAM for     wfc (w. buffer):      10.03 MB

     Dynamical RAM for           str. fact:       0.16 MB

     Dynamical RAM for           local pot:       0.00 MB

     Dynamical RAM for          nlocal pot:       1.84 MB

     Dynamical RAM for                qrad:      20.10 MB

     Dynamical RAM for          rho,v,vnew:       2.13 MB

     Dynamical RAM for               rhoin:       0.71 MB

     Dynamical RAM for            rho*nmix:       5.25 MB

     Dynamical RAM for           G-vectors:       0.35 MB

     Dynamical RAM for          h,s,v(r/c):       0.90 MB

     Dynamical RAM for          <psi|beta>:       0.38 MB

     Dynamical RAM for                 psi:       2.87 MB

     Dynamical RAM for                hpsi:       2.87 MB

     Dynamical RAM for      wfcinit/wfcrot:       2.33 MB

     Estimated static dynamical RAM per process >      36.33 MB

     Estimated max dynamical RAM per process >      48.60 MB

     Estimated total dynamical RAM >     388.79 MB

     Initial potential from superposition of free atoms

     starting charge      57.9997, renormalised to      58.0000
     Starting wfcs are   72 randomized atomic wfcs

     total cpu time spent up to now is        0.4 secs

     Self-consistent Calculation

     iteration #  1     ecut=    80.00 Ry     beta= 0.70
     Davidson diagonalization with overlap

---- Real-time Memory Report at c_bands before calling an iterative solver
           127 MiB given to the printing process from OS
             0 MiB allocation reported by mallinfo(arena+hblkhd)
         53184 MiB available memory on the node where the printing process lives
------------------
     ethr =  1.00E-02,  avg # of iterations =  2.2

     total cpu time spent up to now is        1.2 secs

     total energy              =    -552.47158915 Ry
     estimated scf accuracy    <       1.16654425 Ry

     iteration #  2     ecut=    80.00 Ry     beta= 0.70
     Davidson diagonalization with overlap

---- Real-time Memory Report at c_bands before calling an iterative solver
           138 MiB given to the printing process from OS
             0 MiB allocation reported by mallinfo(arena+hblkhd)
         53102 MiB available memory on the node where the printing process lives
------------------
     ethr =  2.01E-03,  avg # of iterations =  2.2

     total cpu time spent up to now is        2.0 secs

     total energy              =    -552.20121574 Ry
     estimated scf accuracy    <       4.53838186 Ry

     iteration #  3     ecut=    80.00 Ry     beta= 0.70
     Davidson diagonalization with overlap

---- Real-time Memory Report at c_bands before calling an iterative solver
           142 MiB given to the printing process from OS
             0 MiB allocation reported by mallinfo(arena+hblkhd)
         53080 MiB available memory on the node where the printing process lives
------------------
     ethr =  2.01E-03,  avg # of iterations =  2.0

     total cpu time spent up to now is        2.8 secs

     total energy              =    -553.09397867 Ry
     estimated scf accuracy    <       0.04795585 Ry

     iteration #  4     ecut=    80.00 Ry     beta= 0.70
     Davidson diagonalization with overlap

---- Real-time Memory Report at c_bands before calling an iterative solver
           146 MiB given to the printing process from OS
             0 MiB allocation reported by mallinfo(arena+hblkhd)
         53070 MiB available memory on the node where the printing process lives
------------------
     ethr =  8.27E-05,  avg # of iterations =  3.0

     total cpu time spent up to now is        3.6 secs

     total energy              =    -553.09613008 Ry
     estimated scf accuracy    <       0.00967531 Ry

     iteration #  5     ecut=    80.00 Ry     beta= 0.70
     Davidson diagonalization with overlap

---- Real-time Memory Report at c_bands before calling an iterative solver
           147 MiB given to the printing process from OS
             0 MiB allocation reported by mallinfo(arena+hblkhd)
         53062 MiB available memory on the node where the printing process lives
------------------
     ethr =  1.67E-05,  avg # of iterations =  2.0

     total cpu time spent up to now is        4.3 secs

     total energy              =    -553.09798320 Ry
     estimated scf accuracy    <       0.00030087 Ry

     iteration #  6     ecut=    80.00 Ry     beta= 0.70
     Davidson diagonalization with overlap

---- Real-time Memory Report at c_bands before calling an iterative solver
           147 MiB given to the printing process from OS
             0 MiB allocation reported by mallinfo(arena+hblkhd)
         53052 MiB available memory on the node where the printing process lives
------------------
     c_bands:  2 eigenvalues not converged
     ethr =  5.19E-07,  avg # of iterations =  5.5

     total cpu time spent up to now is        5.2 secs

     total energy              =    -553.09802121 Ry
     estimated scf accuracy    <       0.00001935 Ry

     iteration #  7     ecut=    80.00 Ry     beta= 0.70
     Davidson diagonalization with overlap

---- Real-time Memory Report at c_bands before calling an iterative solver
           149 MiB given to the printing process from OS
             0 MiB allocation reported by mallinfo(arena+hblkhd)
         53048 MiB available memory on the node where the printing process lives
------------------
     ethr =  3.34E-08,  avg # of iterations =  2.0

     total cpu time spent up to now is        6.0 secs

     total energy              =    -553.09802564 Ry
     estimated scf accuracy    <       0.00000040 Ry

     iteration #  8     ecut=    80.00 Ry     beta= 0.70
     Davidson diagonalization with overlap

---- Real-time Memory Report at c_bands before calling an iterative solver
           150 MiB given to the printing process from OS
             0 MiB allocation reported by mallinfo(arena+hblkhd)
         53040 MiB available memory on the node where the printing process lives
------------------
     ethr =  6.96E-10,  avg # of iterations =  2.3

     total cpu time spent up to now is        6.7 secs

     total energy              =    -553.09802574 Ry
     estimated scf accuracy    <       0.00000002 Ry

     iteration #  9     ecut=    80.00 Ry     beta= 0.70
     Davidson diagonalization with overlap

---- Real-time Memory Report at c_bands before calling an iterative solver
           151 MiB given to the printing process from OS
             0 MiB allocation reported by mallinfo(arena+hblkhd)
         53034 MiB available memory on the node where the printing process lives
------------------
     ethr =  3.35E-11,  avg # of iterations =  2.2

     total cpu time spent up to now is        7.6 secs

     End of self-consistent calculation

          k = 0.0000 0.0000 0.0000 (  5409 PWs)   bands (ev):

   -79.4083 -79.4083 -79.4069 -79.4069 -46.2486 -46.2486 -46.2379 -46.2379
   -32.8038 -32.8038 -32.7987 -32.7987 -32.6275 -32.6275 -32.5973 -32.5973
    -7.1258  -7.1258  -5.9769  -5.9769  -5.0573  -5.0573  -4.8564  -4.8564
     4.2180   4.2180   4.4552   4.4552   6.0128   6.0128   6.1240   6.1240
     6.2425   6.2425   8.7588   8.7588   8.8770   8.8770   9.1350   9.1350
    10.3042  10.3042  10.9182  10.9182  10.9477  10.9477  10.9600  10.9600
    11.2177  11.2177  11.4180  11.4180  11.5784  11.5784  11.6314  11.6314
    12.0500  12.0500  14.6288  14.6288  15.0746  15.0746  17.6583  17.6583
    17.8724  17.8724  18.0156  18.0156  19.3797  19.3797

     occupation numbers 
     1.0000   1.0000   1.0000   1.0000   1.0000   1.0000   1.0000   1.0000
     1.0000   1.0000   1.0000   1.0000   1.0000   1.0000   1.0000   1.0000
     1.0000   1.0000   1.0000   1.0000   1.0000   1.0000   1.0000   1.0000
     1.0000   1.0000   1.0000   1.0000   1.0000   1.0000   1.0000   1.0000
     1.0000   1.0000   1.0000   1.0000   1.0000   1.0000   1.0000   1.0000
     1.0000   1.0000   1.0000   1.0000   1.0000   1.0000   1.0000   1.0000
     1.0000   1.0000   1.0000   1.0000   1.0000   1.0000   1.0000   1.0000
     1.0000   1.0000  -0.0000  -0.0000  -0.0000  -0.0000  -0.0000  -0.0000
    -0.0000  -0.0000  -0.0000  -0.0000  -0.0000  -0.0000

          k = 0.0000 0.0000-0.7124 (  5314 PWs)   bands (ev):

   -79.4053 -79.4053 -79.4053 -79.4053 -46.2547 -46.2547 -46.2547 -46.2547
   -32.8665 -32.8665 -32.8665 -32.8665 -32.6175 -32.6175 -32.6175 -32.6175
    -5.7885  -5.7885  -5.7885  -5.7885  -5.4552  -5.4552  -5.4552  -5.4552
     5.6959   5.6959   5.6959   5.6959   6.6725   6.6725   6.6725   6.6725
     7.0581   7.0581   7.0581   7.0581   8.1542   8.1542   8.1542   8.1542
     8.5322   8.5322   8.5322   8.5322   9.9164   9.9164   9.9164   9.9164
    11.8653  11.8653  11.8653  11.8653  13.0753  13.0753  13.0753  13.0753
    14.0627  14.0627  14.0627  14.0627  16.0532  16.0532  16.0532  16.0532
    16.5886  16.5886  16.5886  16.5886  22.8988  22.8988

     occupation numbers 
     1.0000   1.0000   1.0000   1.0000   1.0000   1.0000   1.0000   1.0000
     1.0000   1.0000   1.0000   1.0000   1.0000   1.0000   1.0000   1.0000
     1.0000   1.0000   1.0000   1.0000   1.0000   1.0000   1.0000   1.0000
     1.0000   1.0000   1.0000   1.0000   1.0000   1.0000   1.0000   1.0000
     1.0000   1.0000   1.0000   1.0000   1.0000   1.0000   1.0000   1.0000
     1.0000   1.0000   1.0000   1.0000   1.0000   1.0000   1.0000   1.0000
     1.0000   1.0000   1.0000   1.0000   1.0000   1.0000   1.0000   1.0000
     0.1607   0.1607   0.1607   0.1607  -0.0000  -0.0000  -0.0000  -0.0000
    -0.0000  -0.0000  -0.0000  -0.0000  -0.0000  -0.0000

          k = 0.0000-0.5000 0.0000 (  5380 PWs)   bands (ev):

   -79.4076 -79.4076 -79.4076 -79.4076 -46.2433 -46.2433 -46.2433 -46.2433
   -32.7993 -32.7993 -32.7993 -32.7993 -32.6150 -32.6150 -32.6150 -32.6150
    -6.3359  -6.3359  -6.3359  -6.3359  -5.3164  -5.3164  -5.3164  -5.3164
     5.5747   5.5747   5.5747   5.5747   6.2179   6.2179   6.2179   6.2179
     7.2090   7.2090   7.2090   7.2090   7.8657   7.8657   7.8657   7.8657
     8.7385   8.7385   8.7385   8.7385  10.7659  10.7659  10.7659  10.7659
    12.1374  12.1374  12.1374  12.1374  12.4559  12.4559  12.4559  12.4559
    13.6423  13.6423  13.6423  13.6423  17.1778  17.1778  17.1778  17.1778
    17.4744  17.4744  17.4744  17.4744  20.7444  20.7444

     occupation numbers 
     1.0000   1.0000   1.0000   1.0000   1.0000   1.0000   1.0000   1.0000
     1.0000   1.0000   1.0000   1.0000   1.0000   1.0000   1.0000   1.0000
     1.0000   1.0000   1.0000   1.0000   1.0000   1.0000   1.0000   1.0000
     1.0000   1.0000   1.0000   1.0000   1.0000   1.0000   1.0000   1.0000
     1.0000   1.0000   1.0000   1.0000   1.0000   1.0000   1.0000   1.0000
     1.0000   1.0000   1.0000   1.0000   1.0000   1.0000   1.0000   1.0000
     1.0000   1.0000   1.0000   1.0000   1.0000   1.0000   1.0000   1.0000
     1.0000   1.0000   1.0000   1.0000  -0.0000  -0.0000  -0.0000  -0.0000
    -0.0000  -0.0000  -0.0000  -0.0000  -0.0000  -0.0000

          k = 0.0000-0.5000-0.7124 (  5360 PWs)   bands (ev):

   -79.4053 -79.4053 -79.4053 -79.4053 -46.2557 -46.2557 -46.2538 -46.2538
   -32.8813 -32.8813 -32.8525 -32.8525 -32.6264 -32.6264 -32.6085 -32.6085
    -5.8776  -5.8776  -5.8771  -5.8771  -5.4284  -5.4284  -5.2663  -5.2663
     5.4248   5.4248   5.4675   5.4675   6.1671   6.1671   6.1690   6.1690
     7.4830   7.4830   8.0203   8.0203   8.4489   8.4489   8.5975   8.5975
     8.8058   8.8058   8.8995   8.8995  10.5533  10.5533  10.5650  10.5650
    11.0393  11.0393  11.0472  11.0472  11.8747  11.8747  12.2149  12.2149
    14.1183  14.1183  14.4650  14.4650  14.9901  14.9901  15.0398  15.0398
    18.1884  18.1884  18.3586  18.3586  23.1173  23.1173

     occupation numbers 
     1.0000   1.0000   1.0000   1.0000   1.0000   1.0000   1.0000   1.0000
     1.0000   1.0000   1.0000   1.0000   1.0000   1.0000   1.0000   1.0000
     1.0000   1.0000   1.0000   1.0000   1.0000   1.0000   1.0000   1.0000
     1.0000   1.0000   1.0000   1.0000   1.0000   1.0000   1.0000   1.0000
     1.0000   1.0000   1.0000   1.0000   1.0000   1.0000   1.0000   1.0000
     1.0000   1.0000   1.0000   1.0000   1.0000   1.0000   1.0000   1.0000
     1.0000   1.0000   1.0000   1.0000   1.0000   1.0000   1.0000   1.0000
    -0.0352  -0.0352  -0.0000  -0.0000  -0.0000  -0.0000  -0.0000  -0.0000
    -0.0000  -0.0000  -0.0000  -0.0000  -0.0000  -0.0000

          k =-0.5000-0.5000 0.0000 (  5412 PWs)   bands (ev):

   -79.4076 -79.4076 -79.4076 -79.4076 -46.2434 -46.2434 -46.2434 -46.2434
   -32.8013 -32.8013 -32.8013 -32.8013 -32.6133 -32.6133 -32.6133 -32.6133
    -6.4674  -6.4674  -6.4674  -6.4674  -5.0891  -5.0891  -5.0891  -5.0891
     4.3434   4.3434   4.3434   4.3434   5.9911   5.9911   5.9911   5.9911
     8.7210   8.7210   8.7210   8.7210   8.7219   8.7219   8.7219   8.7219
     9.5664   9.5664   9.5664   9.5664  10.2960  10.2960  10.2960  10.2960
    11.1031  11.1031  11.1031  11.1031  11.7258  11.7258  11.7258  11.7258
    14.0425  14.0425  14.0425  14.0425  16.2015  16.2015  16.2015  16.2015
    17.8976  17.8976  17.8976  17.8976  22.7554  22.7565

     occupation numbers 
     1.0000   1.0000   1.0000   1.0000   1.0000   1.0000   1.0000   1.0000
     1.0000   1.0000   1.0000   1.0000   1.0000   1.0000   1.0000   1.0000
     1.0000   1.0000   1.0000   1.0000   1.0000   1.0000   1.0000   1.0000
     1.0000   1.0000   1.0000   1.0000   1.0000   1.0000   1.0000   1.0000
     1.0000   1.0000   1.0000   1.0000   1.0000   1.0000   1.0000   1.0000
     1.0000   1.0000   1.0000   1.0000   1.0000   1.0000   1.0000   1.0000
     1.0000   1.0000   1.0000   1.0000   1.0000   1.0000   1.0000   1.0000
     0.3745   0.3745   0.3745   0.3745  -0.0000  -0.0000  -0.0000  -0.0000
    -0.0000  -0.0000  -0.0000  -0.0000  -0.0000  -0.0000

          k =-0.5000-0.5000-0.7124 (  5384 PWs)   bands (ev):

   -79.4053 -79.4053 -79.4053 -79.4053 -46.2548 -46.2548 -46.2548 -46.2548
   -32.8667 -32.8667 -32.8667 -32.8667 -32.6181 -32.6181 -32.6181 -32.6181
    -5.6828  -5.6828  -5.6828  -5.6828  -5.5345  -5.5345  -5.5345  -5.5345
     5.6950   5.6950   5.6950   5.6950   6.2083   6.2083   6.2083   6.2083
     6.6412   6.6412   6.6412   6.6412   8.2150   8.2150   8.2150   8.2150
     9.6391   9.6391   9.6391   9.6391  10.6265  10.6265  10.6265  10.6265
    11.9111  11.9111  11.9111  11.9111  12.6015  12.6015  12.6015  12.6015
    13.3998  13.3998  13.3998  13.3998  16.0335  16.0335  16.0335  16.0335
    16.9954  16.9954  16.9954  16.9954  23.0665  23.0669

     occupation numbers 
     1.0000   1.0000   1.0000   1.0000   1.0000   1.0000   1.0000   1.0000
     1.0000   1.0000   1.0000   1.0000   1.0000   1.0000   1.0000   1.0000
     1.0000   1.0000   1.0000   1.0000   1.0000   1.0000   1.0000   1.0000
     1.0000   1.0000   1.0000   1.0000   1.0000   1.0000   1.0000   1.0000
     1.0000   1.0000   1.0000   1.0000   1.0000   1.0000   1.0000   1.0000
     1.0000   1.0000   1.0000   1.0000   1.0000   1.0000   1.0000   1.0000
     1.0000   1.0000   1.0000   1.0000   1.0000   1.0000   1.0000   1.0000
     1.0000   1.0000   1.0000   1.0000  -0.0000  -0.0000  -0.0000  -0.0000
    -0.0000  -0.0000  -0.0000  -0.0000  -0.0000  -0.0000

     the Fermi energy is    14.0323 ev

!    total energy              =    -553.09802574 Ry
     estimated scf accuracy    <          9.4E-10 Ry
     smearing contrib. (-TS)   =      -0.00034627 Ry
     internal energy E=F+TS    =    -553.09767947 Ry

     The total energy is F=E-TS. E is the sum of the following terms:
     one-electron contribution =    -190.80684144 Ry
     hartree contribution      =     122.58188862 Ry
     xc contribution           =     -69.88671613 Ry
     ewald contribution        =    -414.98601052 Ry

     convergence has been achieved in   9 iterations

     Forces acting on atoms (cartesian axes, Ry/au):

     atom    1 type  2   force =     0.00000000    0.00000000    0.00000000
     atom    2 type  2   force =     0.00000000    0.00000000    0.00000000
     atom    3 type  1   force =    -0.01859614    0.01859614    0.00000000
     atom    4 type  1   force =     0.01859614    0.01859614   -0.00000000
     atom    5 type  1   force =    -0.01859614   -0.01859614   -0.00000000
     atom    6 type  1   force =     0.01859614   -0.01859614    0.00000000
     The non-local contrib.  to forces
     atom    1 type  2   force =     0.00000000    0.00000000    0.00000000
     atom    2 type  2   force =     0.00000000    0.00000000    0.00000000
     atom    3 type  1   force =    -0.13101875    0.13101875   -0.00000000
     atom    4 type  1   force =     0.13101875    0.13101875    0.00000000
     atom    5 type  1   force =    -0.13101875   -0.13101875    0.00000000
     atom    6 type  1   force =     0.13101875   -0.13101875   -0.00000000
     The ionic contribution  to forces
     atom    1 type  2   force =    -0.00000000   -0.00000000    0.00000000
     atom    2 type  2   force =     0.00000000    0.00000000   -0.00000000
     atom    3 type  1   force =     1.42937233   -1.42937233    0.00000000
     atom    4 type  1   force =    -1.42937233   -1.42937233   -0.00000000
     atom    5 type  1   force =     1.42937233    1.42937233   -0.00000000
     atom    6 type  1   force =    -1.42937233    1.42937233    0.00000000
     The local contribution  to forces
     atom    1 type  2   force =     0.00000000    0.00000000    0.00000000
     atom    2 type  2   force =     0.00000000    0.00000000    0.00000000
     atom    3 type  1   force =    -1.31695355    1.31695355    0.00000000
     atom    4 type  1   force =     1.31695355    1.31695355    0.00000000
     atom    5 type  1   force =    -1.31695355   -1.31695355    0.00000000
     atom    6 type  1   force =     1.31695355   -1.31695355    0.00000000
     The core correction contribution to forces
     atom    1 type  2   force =     0.00000000    0.00000000    0.00000000
     atom    2 type  2   force =     0.00000000    0.00000000    0.00000000
     atom    3 type  1   force =     0.00000000    0.00000000    0.00000000
     atom    4 type  1   force =     0.00000000    0.00000000    0.00000000
     atom    5 type  1   force =     0.00000000    0.00000000    0.00000000
     atom    6 type  1   force =     0.00000000    0.00000000    0.00000000
     The Hubbard contrib.    to forces
     atom    1 type  2   force =     0.00000000    0.00000000    0.00000000
     atom    2 type  2   force =     0.00000000    0.00000000    0.00000000
     atom    3 type  1   force =     0.00000000    0.00000000    0.00000000
     atom    4 type  1   force =     0.00000000    0.00000000    0.00000000
     atom    5 type  1   force =     0.00000000    0.00000000    0.00000000
     atom    6 type  1   force =     0.00000000    0.00000000    0.00000000
     The SCF correction term to forces
     atom    1 type  2   force =     0.00000000    0.00000000   -0.00000000
     atom    2 type  2   force =     0.00000000    0.00000000   -0.00000000
     atom    3 type  1   force =     0.00000382   -0.00000382    0.00000000
     atom    4 type  1   force =    -0.00000382   -0.00000382   -0.00000000
     atom    5 type  1   force =     0.00000382    0.00000382   -0.00000000
     atom    6 type  1   force =    -0.00000382    0.00000382    0.00000000

     Total force =     0.052598     Total SCF correction =     0.000011


     Computing stress (Cartesian axis) and pressure

          total   stress  (Ry/bohr**3)                   (kbar)     P=      -49.68
  -0.00021643   0.00000000   0.00000000          -31.84        0.00        0.00
   0.00000000  -0.00021643   0.00000000            0.00      -31.84        0.00
   0.00000000   0.00000000  -0.00058034            0.00        0.00      -85.37

     kinetic stress (kbar)  48441.23      0.00      0.00
                                0.00  48441.23      0.00
                                0.00      0.00  47468.12

     local   stress (kbar) -12712.92     -0.00      0.00
                               -0.00 -12712.92     -0.00
                                0.00     -0.00 -44283.48

     nonloc. stress (kbar)  14553.41      0.00      0.00
                                0.00  14553.41      0.00
                                0.00      0.00  14662.56

     hartree stress (kbar)   9607.81      0.00     -0.00
                                0.00   9607.81      0.00
                               -0.00      0.00  21335.20

     exc-cor stress (kbar)  -7285.16      0.00     -0.00
                                0.00  -7285.16     -0.00
                               -0.00     -0.00  -7260.32

     corecor stress (kbar)      0.00      0.00      0.00
                                0.00      0.00      0.00
                                0.00      0.00      0.00

     ewald   stress (kbar) -52636.21      0.00     -0.00
                                0.00 -52636.21     -0.00
                               -0.00     -0.00 -32007.45

     hubbard stress (kbar)      0.00      0.00      0.00
                                0.00      0.00      0.00
                                0.00      0.00      0.00

     DFT-D   stress (kbar)      0.00      0.00      0.00
                                0.00      0.00      0.00
                                0.00      0.00      0.00

     XDM     stress (kbar)      0.00      0.00      0.00
                                0.00      0.00      0.00
                                0.00      0.00      0.00

     dft-nl  stress (kbar)      0.00      0.00      0.00
                                0.00      0.00      0.00
                                0.00      0.00      0.00

     TS-vdW  stress (kbar)      0.00      0.00      0.00
                                0.00      0.00      0.00
                                0.00      0.00      0.00


                                0.00      0.00      0.00
                                0.00      0.00      0.00


                                0.00      0.00      0.00


     Writing all to output data dir tmp/espresso.save/
 
     init_run     :      0.27s CPU      0.31s WALL (       1 calls)
     electrons    :      6.96s CPU      7.20s WALL (       1 calls)
     forces       :      0.38s CPU      0.38s WALL (       1 calls)
     stress       :      1.07s CPU      1.08s WALL (       1 calls)

     Called by init_run:
     wfcinit      :      0.21s CPU      0.23s WALL (       1 calls)
     wfcinit:atom :      0.00s CPU      0.00s WALL (       6 calls)
     wfcinit:wfcr :      0.19s CPU      0.21s WALL (       6 calls)
     potinit      :      0.02s CPU      0.02s WALL (       1 calls)
     hinit0       :      0.03s CPU      0.03s WALL (       1 calls)

     Called by electrons:
     c_bands      :      6.22s CPU      6.43s WALL (       9 calls)
     sum_band     :      0.67s CPU      0.70s WALL (       9 calls)
     v_of_rho     :      0.03s CPU      0.03s WALL (      10 calls)
     v_h          :      0.00s CPU      0.00s WALL (      10 calls)
     v_xc         :      0.03s CPU      0.03s WALL (      10 calls)
     mix_rho      :      0.04s CPU      0.04s WALL (       9 calls)

     Called by c_bands:
     init_us_2    :      0.07s CPU      0.07s WALL (     126 calls)
     init_us_2:cp :      0.07s CPU      0.07s WALL (     126 calls)
     cegterg      :      4.83s CPU      5.04s WALL (      54 calls)

     Called by sum_band:
     sum_band:wei :      0.00s CPU      0.00s WALL (       9 calls)
     sum_band:loo :      0.66s CPU      0.68s WALL (       9 calls)
     sum_band:buf :      0.02s CPU      0.02s WALL (      54 calls)
     sum_band:ini :      0.03s CPU      0.03s WALL (      54 calls)

     Called by *egterg:
     cdiaghg      :      0.56s CPU      0.56s WALL (     194 calls)
     cegterg:over :      0.30s CPU      0.30s WALL (     140 calls)
     cegterg:upda :      0.19s CPU      0.19s WALL (     140 calls)
     cegterg:last :      0.26s CPU      0.26s WALL (     108 calls)
     h_psi        :      3.53s CPU      3.74s WALL (     200 calls)
     g_psi        :      0.02s CPU      0.02s WALL (     140 calls)

     Called by h_psi:
     h_psi:calbec :      0.29s CPU      0.30s WALL (     200 calls)
     vloc_psi     :      2.69s CPU      2.89s WALL (     200 calls)
     add_vuspsi   :      0.51s CPU      0.51s WALL (     200 calls)

     General routines
     calbec       :      0.36s CPU      0.38s WALL (     230 calls)
     fft          :      0.02s CPU      0.02s WALL (     137 calls)
     ffts         :      0.00s CPU      0.00s WALL (      36 calls)
     fftw         :      2.77s CPU      2.96s WALL (   46084 calls)
 
     Parallel routines
 
     PWSCF        :      8.76s CPU      9.10s WALL

 
   This run was terminated on:  14:57:40   8Apr2022            

=------------------------------------------------------------------------------=
   JOB DONE.
=------------------------------------------------------------------------------=
