
     Program PWSCF v.7.0 starts on 10Apr2022 at 12:10:17 

     This program is part of the open-source Quantum ESPRESSO suite
     for quantum simulation of materials; please cite
         "P. Giannozzi et al., J. Phys.:Condens. Matter 21 395502 (2009);
         "P. Giannozzi et al., J. Phys.:Condens. Matter 29 465901 (2017);
         "P. Giannozzi et al., J. Chem. Phys. 152 154105 (2020);
          URL http://www.quantum-espresso.org", 
     in publications or presentations arising from this work. More details at
     http://www.quantum-espresso.org/quote

     Parallel version (MPI & OpenMP), running on      64 processor cores
     Number of MPI processes:                32
     Threads/MPI process:                     2

     MPI processes distributed on     1 nodes
     R & G space division:  proc/nbgrp/npool/nimage =      32
     230183 MiB available memory on the printing compute node when the environment starts
 
     Reading input from kpoints_101011.pwi
Warning: card &CELL ignored
Warning: card / ignored

     Current dimensions of program PWSCF are:
     Max number of different atomic species (ntypx) = 10
     Max number of k-points (npk) =  40000
     Max angular momentum in pseudopotentials (lmaxx) =  4

     Subspace diagonalization in iterative solution of the eigenvalue problem:
     one sub-group per band group will be used
     scalapack distributed-memory algorithm (size of sub-group:  5*  5 procs)

 
     Parallelization info
     --------------------
     sticks:   dense  smooth     PW     G-vecs:    dense   smooth      PW
     Min          58      58     17                 1342     1342     210
     Max          59      59     19                 1345     1345     212
     Sum        1885    1885    553                42999    42999    6747
 
     Using Slab Decomposition
 

     Title: 
     IrO2 Unit Cell                                                             


     bravais-lattice index     =            6
     lattice parameter (alat)  =       8.5888  a.u.
     unit-cell volume          =     444.6868 (a.u.)^3
     number of atoms/cell      =            6
     number of atomic types    =            2
     number of electrons       =        58.00
     number of Kohn-Sham states=           70
     kinetic-energy cutoff     =      80.0000  Ry
     charge density cutoff     =     320.0000  Ry
     scf convergence threshold =      1.0E-09
     mixing beta               =       0.7000
     number of iterations used =            8  plain     mixing
     Exchange-correlation= PBE
                           (   1   4   3   4   0   0   0)
     Non magnetic calculation with spin-orbit


     celldm(1)=   8.588800  celldm(2)=   0.000000  celldm(3)=   0.701870
     celldm(4)=   0.000000  celldm(5)=   0.000000  celldm(6)=   0.000000

     crystal axes: (cart. coord. in units of alat)
               a(1) = (   1.000000   0.000000   0.000000 )  
               a(2) = (   0.000000   1.000000   0.000000 )  
               a(3) = (   0.000000   0.000000   0.701870 )  

     reciprocal axes: (cart. coord. in units 2 pi/alat)
               b(1) = (  1.000000  0.000000  0.000000 )  
               b(2) = (  0.000000  1.000000  0.000000 )  
               b(3) = (  0.000000  0.000000  1.424765 )  


     PseudoPot. # 1 for O  read from file:
     ../../XX_PSEUDO/O_ONCV_PBE_fr.upf
     MD5 check sum: 59c925217d3b58c6d762355590b68b09
     Pseudo is Norm-conserving, Zval =  6.0
     Generated using ONCVPSP code by D. R. Hamann
     Using radial grid of  936 points,  6 beta functions with: 
                l(1) =   0
                l(2) =   0
                l(3) =   1
                l(4) =   1
                l(5) =   1
                l(6) =   1

     PseudoPot. # 2 for Ir read from file:
     ../../XX_PSEUDO/Ir_ONCV_PBE_fr.upf
     MD5 check sum: 924e909c4146afa09f62ee3401806954
     Pseudo is Norm-conserving, Zval = 17.0
     Generated using ONCVPSP code by D. R. Hamann
     Using radial grid of 1310 points, 14 beta functions with: 
                l(1) =   0
                l(2) =   0
                l(3) =   1
                l(4) =   1
                l(5) =   1
                l(6) =   1
                l(7) =   2
                l(8) =   2
                l(9) =   2
               l(10) =   2
               l(11) =   3
               l(12) =   3
               l(13) =   3
               l(14) =   3

     atomic species   valence    mass     pseudopotential
        O              6.00    15.99900     O ( 1.00)
        Ir            17.00   192.21700     Ir( 1.00)

     16 Sym. Ops., with inversion, found ( 8 have fractional translation)


                                    s                        frac. trans.

      isym =  1     identity                                     

 cryst.   s( 1) = (     1          0          0      )
                  (     0          1          0      )
                  (     0          0          1      )

 cart.    s( 1) = (  1.0000000  0.0000000  0.0000000 )
                  (  0.0000000  1.0000000  0.0000000 )
                  (  0.0000000  0.0000000  1.0000000 )


      isym =  2     180 deg rotation - cart. axis [0,0,1]        

 cryst.   s( 2) = (    -1          0          0      )
                  (     0         -1          0      )
                  (     0          0          1      )

 cart.    s( 2) = ( -1.0000000  0.0000000  0.0000000 )
                  (  0.0000000 -1.0000000  0.0000000 )
                  (  0.0000000  0.0000000  1.0000000 )


      isym =  3     180 deg rotation - cart. axis [0,1,0]        

 cryst.   s( 3) = (    -1          0          0      )    f =(  0.5000000 )
                  (     0          1          0      )       ( -0.5000000 )
                  (     0          0         -1      )       (  0.5000000 )

 cart.    s( 3) = ( -1.0000000  0.0000000  0.0000000 )    f =(  0.5000000 )
                  (  0.0000000  1.0000000  0.0000000 )       ( -0.5000000 )
                  (  0.0000000  0.0000000 -1.0000000 )       (  0.3509351 )


      isym =  4     180 deg rotation - cart. axis [1,0,0]        

 cryst.   s( 4) = (     1          0          0      )    f =( -0.5000000 )
                  (     0         -1          0      )       (  0.5000000 )
                  (     0          0         -1      )       (  0.5000000 )

 cart.    s( 4) = (  1.0000000  0.0000000  0.0000000 )    f =( -0.5000000 )
                  (  0.0000000 -1.0000000  0.0000000 )       (  0.5000000 )
                  (  0.0000000  0.0000000 -1.0000000 )       (  0.3509351 )


      isym =  5     180 deg rotation - cart. axis [1,1,0]        

 cryst.   s( 5) = (     0          1          0      )
                  (     1          0          0      )
                  (     0          0         -1      )

 cart.    s( 5) = (  0.0000000  1.0000000  0.0000000 )
                  (  1.0000000  0.0000000  0.0000000 )
                  (  0.0000000  0.0000000 -1.0000000 )


      isym =  6     180 deg rotation - cart. axis [1,-1,0]       

 cryst.   s( 6) = (     0         -1          0      )
                  (    -1          0          0      )
                  (     0          0         -1      )

 cart.    s( 6) = (  0.0000000 -1.0000000  0.0000000 )
                  ( -1.0000000  0.0000000  0.0000000 )
                  (  0.0000000  0.0000000 -1.0000000 )


      isym =  7      90 deg rotation - cart. axis [0,0,-1]       

 cryst.   s( 7) = (     0         -1          0      )    f =( -0.5000000 )
                  (     1          0          0      )       (  0.5000000 )
                  (     0          0          1      )       ( -0.5000000 )

 cart.    s( 7) = (  0.0000000  1.0000000  0.0000000 )    f =( -0.5000000 )
                  ( -1.0000000  0.0000000  0.0000000 )       (  0.5000000 )
                  (  0.0000000  0.0000000  1.0000000 )       ( -0.3509351 )


      isym =  8      90 deg rotation - cart. axis [0,0,1]        

 cryst.   s( 8) = (     0          1          0      )    f =(  0.5000000 )
                  (    -1          0          0      )       ( -0.5000000 )
                  (     0          0          1      )       ( -0.5000000 )

 cart.    s( 8) = (  0.0000000 -1.0000000  0.0000000 )    f =(  0.5000000 )
                  (  1.0000000  0.0000000  0.0000000 )       ( -0.5000000 )
                  (  0.0000000  0.0000000  1.0000000 )       ( -0.3509351 )


      isym =  9     inversion                                    

 cryst.   s( 9) = (    -1          0          0      )
                  (     0         -1          0      )
                  (     0          0         -1      )

 cart.    s( 9) = ( -1.0000000  0.0000000  0.0000000 )
                  (  0.0000000 -1.0000000  0.0000000 )
                  (  0.0000000  0.0000000 -1.0000000 )


      isym = 10     inv. 180 deg rotation - cart. axis [0,0,1]   

 cryst.   s(10) = (     1          0          0      )
                  (     0          1          0      )
                  (     0          0         -1      )

 cart.    s(10) = (  1.0000000  0.0000000  0.0000000 )
                  (  0.0000000  1.0000000  0.0000000 )
                  (  0.0000000  0.0000000 -1.0000000 )


      isym = 11     inv. 180 deg rotation - cart. axis [0,1,0]   

 cryst.   s(11) = (     1          0          0      )    f =( -0.5000000 )
                  (     0         -1          0      )       (  0.5000000 )
                  (     0          0          1      )       ( -0.5000000 )

 cart.    s(11) = (  1.0000000  0.0000000  0.0000000 )    f =( -0.5000000 )
                  (  0.0000000 -1.0000000  0.0000000 )       (  0.5000000 )
                  (  0.0000000  0.0000000  1.0000000 )       ( -0.3509351 )


      isym = 12     inv. 180 deg rotation - cart. axis [1,0,0]   

 cryst.   s(12) = (    -1          0          0      )    f =(  0.5000000 )
                  (     0          1          0      )       ( -0.5000000 )
                  (     0          0          1      )       ( -0.5000000 )

 cart.    s(12) = ( -1.0000000  0.0000000  0.0000000 )    f =(  0.5000000 )
                  (  0.0000000  1.0000000  0.0000000 )       ( -0.5000000 )
                  (  0.0000000  0.0000000  1.0000000 )       ( -0.3509351 )


      isym = 13     inv. 180 deg rotation - cart. axis [1,1,0]   

 cryst.   s(13) = (     0         -1          0      )
                  (    -1          0          0      )
                  (     0          0          1      )

 cart.    s(13) = (  0.0000000 -1.0000000  0.0000000 )
                  ( -1.0000000  0.0000000  0.0000000 )
                  (  0.0000000  0.0000000  1.0000000 )


      isym = 14     inv. 180 deg rotation - cart. axis [1,-1,0]  

 cryst.   s(14) = (     0          1          0      )
                  (     1          0          0      )
                  (     0          0          1      )

 cart.    s(14) = (  0.0000000  1.0000000  0.0000000 )
                  (  1.0000000  0.0000000  0.0000000 )
                  (  0.0000000  0.0000000  1.0000000 )


      isym = 15     inv.  90 deg rotation - cart. axis [0,0,-1]  

 cryst.   s(15) = (     0          1          0      )    f =(  0.5000000 )
                  (    -1          0          0      )       ( -0.5000000 )
                  (     0          0         -1      )       (  0.5000000 )

 cart.    s(15) = (  0.0000000 -1.0000000  0.0000000 )    f =(  0.5000000 )
                  (  1.0000000  0.0000000  0.0000000 )       ( -0.5000000 )
                  (  0.0000000  0.0000000 -1.0000000 )       (  0.3509351 )


      isym = 16     inv.  90 deg rotation - cart. axis [0,0,1]   

 cryst.   s(16) = (     0         -1          0      )    f =( -0.5000000 )
                  (     1          0          0      )       (  0.5000000 )
                  (     0          0         -1      )       (  0.5000000 )

 cart.    s(16) = (  0.0000000  1.0000000  0.0000000 )    f =( -0.5000000 )
                  ( -1.0000000  0.0000000  0.0000000 )       (  0.5000000 )
                  (  0.0000000  0.0000000 -1.0000000 )       (  0.3509351 )


     double point group D_4h(4/mmm)
     there are 14 classes and  4 irreducible representations
     the character table:

       E     -E    2C4   -2C4   C2    2C2' 2C2'' i     -i    2S4   -2S4   s_h 
                               -C2   -2C2' -2C2'                         -s_h 
G_6+   2.00 -2.00  1.41 -1.41  0.00  0.00  0.00  2.00 -2.00  1.41 -1.41  0.00
G_7+   2.00 -2.00 -1.41  1.41  0.00  0.00  0.00  2.00 -2.00 -1.41  1.41  0.00
G_6-   2.00 -2.00  1.41 -1.41  0.00  0.00  0.00 -2.00  2.00 -1.41  1.41  0.00
G_7-   2.00 -2.00 -1.41  1.41  0.00  0.00  0.00 -2.00  2.00  1.41 -1.41  0.00

        2s_v  2s_d
       -2s_v -2s_d
G_6+   0.00  0.00
G_7+   0.00  0.00
G_6-   0.00  0.00
G_7-   0.00  0.00

     the symmetry operations in each class and the name of the first element:

     E             1
          identity                                               
     -E           -1
          identity E                                             
     2C4           7    8
           90 deg rotation - cart. axis [0,0,-1]                 
     -2C4         -7   -8
           90 deg rotation - cart. axis [0,0,-1] E               
      C2  -C2      2   -2
          180 deg rotation - cart. axis [0,0,1]                  
      2C2'-2C2'    3   -3    4   -4
          180 deg rotation - cart. axis [0,1,0]                  
     2C2''-2C2'    5   -5   -6    6
          180 deg rotation - cart. axis [1,1,0]                  
     i             9
          inversion                                              
     -i           -9
          inversion E                                            
     2S4          15   16
          inv.  90 deg rotation - cart. axis [0,0,-1]            
     -2S4        -15  -16
          inv.  90 deg rotation - cart. axis [0,0,-1] E          
      s_h -s_h    10  -10
          inv. 180 deg rotation - cart. axis [0,0,1]             
      2s_v-2s_v   11  -11   12  -12
          inv. 180 deg rotation - cart. axis [0,1,0]             
      2s_d-2s_d   13  -13  -14   14
          inv. 180 deg rotation - cart. axis [1,1,0]             

   Cartesian axes

     site n.     atom                  positions (alat units)
         1           Ir  tau(   1) = (   0.0000000   0.0000000   0.0000000  )
         2           Ir  tau(   2) = (   0.5000000   0.5000000   0.3509351  )
         3           O   tau(   3) = (   0.1916000   0.8084000   0.3509351  )
         4           O   tau(   4) = (   0.3084000   0.3084000   0.0000000  )
         5           O   tau(   5) = (   0.6916000   0.6916000   0.0000000  )
         6           O   tau(   6) = (   0.8084000   0.1916000   0.3509351  )

   Crystallographic axes

     site n.     atom                  positions (cryst. coord.)
         1           Ir  tau(   1) = (  0.0000000  0.0000000  0.0000000  )
         2           Ir  tau(   2) = (  0.5000000  0.5000000  0.5000000  )
         3           O   tau(   3) = (  0.1916000  0.8084000  0.5000000  )
         4           O   tau(   4) = (  0.3084000  0.3084000  0.0000000  )
         5           O   tau(   5) = (  0.6916000  0.6916000  0.0000000  )
         6           O   tau(   6) = (  0.8084000  0.1916000  0.5000000  )

     number of k points=   126  Methfessel-Paxton smearing, width (Ry)=  0.0050
                       cart. coord. in units 2pi/alat
        k(    1) = (   0.0000000   0.0000000   0.0000000), wk =   0.0009091
        k(    2) = (   0.0000000   0.0000000   0.1295241), wk =   0.0018182
        k(    3) = (   0.0000000   0.0000000   0.2590482), wk =   0.0018182
        k(    4) = (   0.0000000   0.0000000   0.3885722), wk =   0.0018182
        k(    5) = (   0.0000000   0.0000000   0.5180963), wk =   0.0018182
        k(    6) = (   0.0000000   0.0000000   0.6476204), wk =   0.0018182
        k(    7) = (   0.0000000   0.1000000   0.0000000), wk =   0.0036364
        k(    8) = (   0.0000000   0.1000000   0.1295241), wk =   0.0072727
        k(    9) = (   0.0000000   0.1000000   0.2590482), wk =   0.0072727
        k(   10) = (   0.0000000   0.1000000   0.3885722), wk =   0.0072727
        k(   11) = (   0.0000000   0.1000000   0.5180963), wk =   0.0072727
        k(   12) = (   0.0000000   0.1000000   0.6476204), wk =   0.0072727
        k(   13) = (   0.0000000   0.2000000   0.0000000), wk =   0.0036364
        k(   14) = (   0.0000000   0.2000000   0.1295241), wk =   0.0072727
        k(   15) = (   0.0000000   0.2000000   0.2590482), wk =   0.0072727
        k(   16) = (   0.0000000   0.2000000   0.3885722), wk =   0.0072727
        k(   17) = (   0.0000000   0.2000000   0.5180963), wk =   0.0072727
        k(   18) = (   0.0000000   0.2000000   0.6476204), wk =   0.0072727
        k(   19) = (   0.0000000   0.3000000   0.0000000), wk =   0.0036364
        k(   20) = (   0.0000000   0.3000000   0.1295241), wk =   0.0072727
        k(   21) = (   0.0000000   0.3000000   0.2590482), wk =   0.0072727
        k(   22) = (   0.0000000   0.3000000   0.3885722), wk =   0.0072727
        k(   23) = (   0.0000000   0.3000000   0.5180963), wk =   0.0072727
        k(   24) = (   0.0000000   0.3000000   0.6476204), wk =   0.0072727
        k(   25) = (   0.0000000   0.4000000   0.0000000), wk =   0.0036364
        k(   26) = (   0.0000000   0.4000000   0.1295241), wk =   0.0072727
        k(   27) = (   0.0000000   0.4000000   0.2590482), wk =   0.0072727
        k(   28) = (   0.0000000   0.4000000   0.3885722), wk =   0.0072727
        k(   29) = (   0.0000000   0.4000000   0.5180963), wk =   0.0072727
        k(   30) = (   0.0000000   0.4000000   0.6476204), wk =   0.0072727
        k(   31) = (   0.0000000  -0.5000000   0.0000000), wk =   0.0018182
        k(   32) = (   0.0000000  -0.5000000   0.1295241), wk =   0.0036364
        k(   33) = (   0.0000000  -0.5000000   0.2590482), wk =   0.0036364
        k(   34) = (   0.0000000  -0.5000000   0.3885722), wk =   0.0036364
        k(   35) = (   0.0000000  -0.5000000   0.5180963), wk =   0.0036364
        k(   36) = (   0.0000000  -0.5000000   0.6476204), wk =   0.0036364
        k(   37) = (   0.1000000   0.1000000   0.0000000), wk =   0.0036364
        k(   38) = (   0.1000000   0.1000000   0.1295241), wk =   0.0072727
        k(   39) = (   0.1000000   0.1000000   0.2590482), wk =   0.0072727
        k(   40) = (   0.1000000   0.1000000   0.3885722), wk =   0.0072727
        k(   41) = (   0.1000000   0.1000000   0.5180963), wk =   0.0072727
        k(   42) = (   0.1000000   0.1000000   0.6476204), wk =   0.0072727
        k(   43) = (   0.1000000   0.2000000   0.0000000), wk =   0.0072727
        k(   44) = (   0.1000000   0.2000000   0.1295241), wk =   0.0145455
        k(   45) = (   0.1000000   0.2000000   0.2590482), wk =   0.0145455
        k(   46) = (   0.1000000   0.2000000   0.3885722), wk =   0.0145455
        k(   47) = (   0.1000000   0.2000000   0.5180963), wk =   0.0145455
        k(   48) = (   0.1000000   0.2000000   0.6476204), wk =   0.0145455
        k(   49) = (   0.1000000   0.3000000   0.0000000), wk =   0.0072727
        k(   50) = (   0.1000000   0.3000000   0.1295241), wk =   0.0145455
        k(   51) = (   0.1000000   0.3000000   0.2590482), wk =   0.0145455
        k(   52) = (   0.1000000   0.3000000   0.3885722), wk =   0.0145455
        k(   53) = (   0.1000000   0.3000000   0.5180963), wk =   0.0145455
        k(   54) = (   0.1000000   0.3000000   0.6476204), wk =   0.0145455
        k(   55) = (   0.1000000   0.4000000   0.0000000), wk =   0.0072727
        k(   56) = (   0.1000000   0.4000000   0.1295241), wk =   0.0145455
        k(   57) = (   0.1000000   0.4000000   0.2590482), wk =   0.0145455
        k(   58) = (   0.1000000   0.4000000   0.3885722), wk =   0.0145455
        k(   59) = (   0.1000000   0.4000000   0.5180963), wk =   0.0145455
        k(   60) = (   0.1000000   0.4000000   0.6476204), wk =   0.0145455
        k(   61) = (   0.1000000  -0.5000000   0.0000000), wk =   0.0036364
        k(   62) = (   0.1000000  -0.5000000   0.1295241), wk =   0.0072727
        k(   63) = (   0.1000000  -0.5000000   0.2590482), wk =   0.0072727
        k(   64) = (   0.1000000  -0.5000000   0.3885722), wk =   0.0072727
        k(   65) = (   0.1000000  -0.5000000   0.5180963), wk =   0.0072727
        k(   66) = (   0.1000000  -0.5000000   0.6476204), wk =   0.0072727
        k(   67) = (   0.2000000   0.2000000   0.0000000), wk =   0.0036364
        k(   68) = (   0.2000000   0.2000000   0.1295241), wk =   0.0072727
        k(   69) = (   0.2000000   0.2000000   0.2590482), wk =   0.0072727
        k(   70) = (   0.2000000   0.2000000   0.3885722), wk =   0.0072727
        k(   71) = (   0.2000000   0.2000000   0.5180963), wk =   0.0072727
        k(   72) = (   0.2000000   0.2000000   0.6476204), wk =   0.0072727
        k(   73) = (   0.2000000   0.3000000   0.0000000), wk =   0.0072727
        k(   74) = (   0.2000000   0.3000000   0.1295241), wk =   0.0145455
        k(   75) = (   0.2000000   0.3000000   0.2590482), wk =   0.0145455
        k(   76) = (   0.2000000   0.3000000   0.3885722), wk =   0.0145455
        k(   77) = (   0.2000000   0.3000000   0.5180963), wk =   0.0145455
        k(   78) = (   0.2000000   0.3000000   0.6476204), wk =   0.0145455
        k(   79) = (   0.2000000   0.4000000   0.0000000), wk =   0.0072727
        k(   80) = (   0.2000000   0.4000000   0.1295241), wk =   0.0145455
        k(   81) = (   0.2000000   0.4000000   0.2590482), wk =   0.0145455
        k(   82) = (   0.2000000   0.4000000   0.3885722), wk =   0.0145455
        k(   83) = (   0.2000000   0.4000000   0.5180963), wk =   0.0145455
        k(   84) = (   0.2000000   0.4000000   0.6476204), wk =   0.0145455
        k(   85) = (   0.2000000  -0.5000000   0.0000000), wk =   0.0036364
        k(   86) = (   0.2000000  -0.5000000   0.1295241), wk =   0.0072727
        k(   87) = (   0.2000000  -0.5000000   0.2590482), wk =   0.0072727
        k(   88) = (   0.2000000  -0.5000000   0.3885722), wk =   0.0072727
        k(   89) = (   0.2000000  -0.5000000   0.5180963), wk =   0.0072727
        k(   90) = (   0.2000000  -0.5000000   0.6476204), wk =   0.0072727
        k(   91) = (   0.3000000   0.3000000   0.0000000), wk =   0.0036364
        k(   92) = (   0.3000000   0.3000000   0.1295241), wk =   0.0072727
        k(   93) = (   0.3000000   0.3000000   0.2590482), wk =   0.0072727
        k(   94) = (   0.3000000   0.3000000   0.3885722), wk =   0.0072727
        k(   95) = (   0.3000000   0.3000000   0.5180963), wk =   0.0072727
        k(   96) = (   0.3000000   0.3000000   0.6476204), wk =   0.0072727
        k(   97) = (   0.3000000   0.4000000   0.0000000), wk =   0.0072727
        k(   98) = (   0.3000000   0.4000000   0.1295241), wk =   0.0145455
        k(   99) = (   0.3000000   0.4000000   0.2590482), wk =   0.0145455
        k(  100) = (   0.3000000   0.4000000   0.3885722), wk =   0.0145455
        k(  101) = (   0.3000000   0.4000000   0.5180963), wk =   0.0145455
        k(  102) = (   0.3000000   0.4000000   0.6476204), wk =   0.0145455
        k(  103) = (   0.3000000  -0.5000000   0.0000000), wk =   0.0036364
        k(  104) = (   0.3000000  -0.5000000   0.1295241), wk =   0.0072727
        k(  105) = (   0.3000000  -0.5000000   0.2590482), wk =   0.0072727
        k(  106) = (   0.3000000  -0.5000000   0.3885722), wk =   0.0072727
        k(  107) = (   0.3000000  -0.5000000   0.5180963), wk =   0.0072727
        k(  108) = (   0.3000000  -0.5000000   0.6476204), wk =   0.0072727
        k(  109) = (   0.4000000   0.4000000   0.0000000), wk =   0.0036364
        k(  110) = (   0.4000000   0.4000000   0.1295241), wk =   0.0072727
        k(  111) = (   0.4000000   0.4000000   0.2590482), wk =   0.0072727
        k(  112) = (   0.4000000   0.4000000   0.3885722), wk =   0.0072727
        k(  113) = (   0.4000000   0.4000000   0.5180963), wk =   0.0072727
        k(  114) = (   0.4000000   0.4000000   0.6476204), wk =   0.0072727
        k(  115) = (   0.4000000  -0.5000000   0.0000000), wk =   0.0036364
        k(  116) = (   0.4000000  -0.5000000   0.1295241), wk =   0.0072727
        k(  117) = (   0.4000000  -0.5000000   0.2590482), wk =   0.0072727
        k(  118) = (   0.4000000  -0.5000000   0.3885722), wk =   0.0072727
        k(  119) = (   0.4000000  -0.5000000   0.5180963), wk =   0.0072727
        k(  120) = (   0.4000000  -0.5000000   0.6476204), wk =   0.0072727
        k(  121) = (  -0.5000000  -0.5000000   0.0000000), wk =   0.0009091
        k(  122) = (  -0.5000000  -0.5000000   0.1295241), wk =   0.0018182
        k(  123) = (  -0.5000000  -0.5000000   0.2590482), wk =   0.0018182
        k(  124) = (  -0.5000000  -0.5000000   0.3885722), wk =   0.0018182
        k(  125) = (  -0.5000000  -0.5000000   0.5180963), wk =   0.0018182
        k(  126) = (  -0.5000000  -0.5000000   0.6476204), wk =   0.0018182

                       cryst. coord.
        k(    1) = (   0.0000000   0.0000000   0.0000000), wk =   0.0009091
        k(    2) = (   0.0000000   0.0000000   0.0909091), wk =   0.0018182
        k(    3) = (   0.0000000   0.0000000   0.1818182), wk =   0.0018182
        k(    4) = (   0.0000000   0.0000000   0.2727273), wk =   0.0018182
        k(    5) = (   0.0000000   0.0000000   0.3636364), wk =   0.0018182
        k(    6) = (   0.0000000   0.0000000   0.4545455), wk =   0.0018182
        k(    7) = (   0.0000000   0.1000000   0.0000000), wk =   0.0036364
        k(    8) = (   0.0000000   0.1000000   0.0909091), wk =   0.0072727
        k(    9) = (   0.0000000   0.1000000   0.1818182), wk =   0.0072727
        k(   10) = (   0.0000000   0.1000000   0.2727273), wk =   0.0072727
        k(   11) = (   0.0000000   0.1000000   0.3636364), wk =   0.0072727
        k(   12) = (   0.0000000   0.1000000   0.4545455), wk =   0.0072727
        k(   13) = (   0.0000000   0.2000000   0.0000000), wk =   0.0036364
        k(   14) = (   0.0000000   0.2000000   0.0909091), wk =   0.0072727
        k(   15) = (   0.0000000   0.2000000   0.1818182), wk =   0.0072727
        k(   16) = (   0.0000000   0.2000000   0.2727273), wk =   0.0072727
        k(   17) = (   0.0000000   0.2000000   0.3636364), wk =   0.0072727
        k(   18) = (   0.0000000   0.2000000   0.4545455), wk =   0.0072727
        k(   19) = (   0.0000000   0.3000000   0.0000000), wk =   0.0036364
        k(   20) = (   0.0000000   0.3000000   0.0909091), wk =   0.0072727
        k(   21) = (   0.0000000   0.3000000   0.1818182), wk =   0.0072727
        k(   22) = (   0.0000000   0.3000000   0.2727273), wk =   0.0072727
        k(   23) = (   0.0000000   0.3000000   0.3636364), wk =   0.0072727
        k(   24) = (   0.0000000   0.3000000   0.4545455), wk =   0.0072727
        k(   25) = (   0.0000000   0.4000000   0.0000000), wk =   0.0036364
        k(   26) = (   0.0000000   0.4000000   0.0909091), wk =   0.0072727
        k(   27) = (   0.0000000   0.4000000   0.1818182), wk =   0.0072727
        k(   28) = (   0.0000000   0.4000000   0.2727273), wk =   0.0072727
        k(   29) = (   0.0000000   0.4000000   0.3636364), wk =   0.0072727
        k(   30) = (   0.0000000   0.4000000   0.4545455), wk =   0.0072727
        k(   31) = (   0.0000000  -0.5000000   0.0000000), wk =   0.0018182
        k(   32) = (   0.0000000  -0.5000000   0.0909091), wk =   0.0036364
        k(   33) = (   0.0000000  -0.5000000   0.1818182), wk =   0.0036364
        k(   34) = (   0.0000000  -0.5000000   0.2727273), wk =   0.0036364
        k(   35) = (   0.0000000  -0.5000000   0.3636364), wk =   0.0036364
        k(   36) = (   0.0000000  -0.5000000   0.4545455), wk =   0.0036364
        k(   37) = (   0.1000000   0.1000000   0.0000000), wk =   0.0036364
        k(   38) = (   0.1000000   0.1000000   0.0909091), wk =   0.0072727
        k(   39) = (   0.1000000   0.1000000   0.1818182), wk =   0.0072727
        k(   40) = (   0.1000000   0.1000000   0.2727273), wk =   0.0072727
        k(   41) = (   0.1000000   0.1000000   0.3636364), wk =   0.0072727
        k(   42) = (   0.1000000   0.1000000   0.4545455), wk =   0.0072727
        k(   43) = (   0.1000000   0.2000000   0.0000000), wk =   0.0072727
        k(   44) = (   0.1000000   0.2000000   0.0909091), wk =   0.0145455
        k(   45) = (   0.1000000   0.2000000   0.1818182), wk =   0.0145455
        k(   46) = (   0.1000000   0.2000000   0.2727273), wk =   0.0145455
        k(   47) = (   0.1000000   0.2000000   0.3636364), wk =   0.0145455
        k(   48) = (   0.1000000   0.2000000   0.4545455), wk =   0.0145455
        k(   49) = (   0.1000000   0.3000000   0.0000000), wk =   0.0072727
        k(   50) = (   0.1000000   0.3000000   0.0909091), wk =   0.0145455
        k(   51) = (   0.1000000   0.3000000   0.1818182), wk =   0.0145455
        k(   52) = (   0.1000000   0.3000000   0.2727273), wk =   0.0145455
        k(   53) = (   0.1000000   0.3000000   0.3636364), wk =   0.0145455
        k(   54) = (   0.1000000   0.3000000   0.4545455), wk =   0.0145455
        k(   55) = (   0.1000000   0.4000000   0.0000000), wk =   0.0072727
        k(   56) = (   0.1000000   0.4000000   0.0909091), wk =   0.0145455
        k(   57) = (   0.1000000   0.4000000   0.1818182), wk =   0.0145455
        k(   58) = (   0.1000000   0.4000000   0.2727273), wk =   0.0145455
        k(   59) = (   0.1000000   0.4000000   0.3636364), wk =   0.0145455
        k(   60) = (   0.1000000   0.4000000   0.4545455), wk =   0.0145455
        k(   61) = (   0.1000000  -0.5000000   0.0000000), wk =   0.0036364
        k(   62) = (   0.1000000  -0.5000000   0.0909091), wk =   0.0072727
        k(   63) = (   0.1000000  -0.5000000   0.1818182), wk =   0.0072727
        k(   64) = (   0.1000000  -0.5000000   0.2727273), wk =   0.0072727
        k(   65) = (   0.1000000  -0.5000000   0.3636364), wk =   0.0072727
        k(   66) = (   0.1000000  -0.5000000   0.4545455), wk =   0.0072727
        k(   67) = (   0.2000000   0.2000000   0.0000000), wk =   0.0036364
        k(   68) = (   0.2000000   0.2000000   0.0909091), wk =   0.0072727
        k(   69) = (   0.2000000   0.2000000   0.1818182), wk =   0.0072727
        k(   70) = (   0.2000000   0.2000000   0.2727273), wk =   0.0072727
        k(   71) = (   0.2000000   0.2000000   0.3636364), wk =   0.0072727
        k(   72) = (   0.2000000   0.2000000   0.4545455), wk =   0.0072727
        k(   73) = (   0.2000000   0.3000000   0.0000000), wk =   0.0072727
        k(   74) = (   0.2000000   0.3000000   0.0909091), wk =   0.0145455
        k(   75) = (   0.2000000   0.3000000   0.1818182), wk =   0.0145455
        k(   76) = (   0.2000000   0.3000000   0.2727273), wk =   0.0145455
        k(   77) = (   0.2000000   0.3000000   0.3636364), wk =   0.0145455
        k(   78) = (   0.2000000   0.3000000   0.4545455), wk =   0.0145455
        k(   79) = (   0.2000000   0.4000000   0.0000000), wk =   0.0072727
        k(   80) = (   0.2000000   0.4000000   0.0909091), wk =   0.0145455
        k(   81) = (   0.2000000   0.4000000   0.1818182), wk =   0.0145455
        k(   82) = (   0.2000000   0.4000000   0.2727273), wk =   0.0145455
        k(   83) = (   0.2000000   0.4000000   0.3636364), wk =   0.0145455
        k(   84) = (   0.2000000   0.4000000   0.4545455), wk =   0.0145455
        k(   85) = (   0.2000000  -0.5000000   0.0000000), wk =   0.0036364
        k(   86) = (   0.2000000  -0.5000000   0.0909091), wk =   0.0072727
        k(   87) = (   0.2000000  -0.5000000   0.1818182), wk =   0.0072727
        k(   88) = (   0.2000000  -0.5000000   0.2727273), wk =   0.0072727
        k(   89) = (   0.2000000  -0.5000000   0.3636364), wk =   0.0072727
        k(   90) = (   0.2000000  -0.5000000   0.4545455), wk =   0.0072727
        k(   91) = (   0.3000000   0.3000000   0.0000000), wk =   0.0036364
        k(   92) = (   0.3000000   0.3000000   0.0909091), wk =   0.0072727
        k(   93) = (   0.3000000   0.3000000   0.1818182), wk =   0.0072727
        k(   94) = (   0.3000000   0.3000000   0.2727273), wk =   0.0072727
        k(   95) = (   0.3000000   0.3000000   0.3636364), wk =   0.0072727
        k(   96) = (   0.3000000   0.3000000   0.4545455), wk =   0.0072727
        k(   97) = (   0.3000000   0.4000000   0.0000000), wk =   0.0072727
        k(   98) = (   0.3000000   0.4000000   0.0909091), wk =   0.0145455
        k(   99) = (   0.3000000   0.4000000   0.1818182), wk =   0.0145455
        k(  100) = (   0.3000000   0.4000000   0.2727273), wk =   0.0145455
        k(  101) = (   0.3000000   0.4000000   0.3636364), wk =   0.0145455
        k(  102) = (   0.3000000   0.4000000   0.4545455), wk =   0.0145455
        k(  103) = (   0.3000000  -0.5000000   0.0000000), wk =   0.0036364
        k(  104) = (   0.3000000  -0.5000000   0.0909091), wk =   0.0072727
        k(  105) = (   0.3000000  -0.5000000   0.1818182), wk =   0.0072727
        k(  106) = (   0.3000000  -0.5000000   0.2727273), wk =   0.0072727
        k(  107) = (   0.3000000  -0.5000000   0.3636364), wk =   0.0072727
        k(  108) = (   0.3000000  -0.5000000   0.4545455), wk =   0.0072727
        k(  109) = (   0.4000000   0.4000000   0.0000000), wk =   0.0036364
        k(  110) = (   0.4000000   0.4000000   0.0909091), wk =   0.0072727
        k(  111) = (   0.4000000   0.4000000   0.1818182), wk =   0.0072727
        k(  112) = (   0.4000000   0.4000000   0.2727273), wk =   0.0072727
        k(  113) = (   0.4000000   0.4000000   0.3636364), wk =   0.0072727
        k(  114) = (   0.4000000   0.4000000   0.4545455), wk =   0.0072727
        k(  115) = (   0.4000000  -0.5000000   0.0000000), wk =   0.0036364
        k(  116) = (   0.4000000  -0.5000000   0.0909091), wk =   0.0072727
        k(  117) = (   0.4000000  -0.5000000   0.1818182), wk =   0.0072727
        k(  118) = (   0.4000000  -0.5000000   0.2727273), wk =   0.0072727
        k(  119) = (   0.4000000  -0.5000000   0.3636364), wk =   0.0072727
        k(  120) = (   0.4000000  -0.5000000   0.4545455), wk =   0.0072727
        k(  121) = (  -0.5000000  -0.5000000   0.0000000), wk =   0.0009091
        k(  122) = (  -0.5000000  -0.5000000   0.0909091), wk =   0.0018182
        k(  123) = (  -0.5000000  -0.5000000   0.1818182), wk =   0.0018182
        k(  124) = (  -0.5000000  -0.5000000   0.2727273), wk =   0.0018182
        k(  125) = (  -0.5000000  -0.5000000   0.3636364), wk =   0.0018182
        k(  126) = (  -0.5000000  -0.5000000   0.4545455), wk =   0.0018182

     Dense  grid:    42999 G-vectors     FFT dimensions: (  50,  50,  36)

     Dynamical RAM for                 wfc:       0.36 MB

     Dynamical RAM for     wfc (w. buffer):      45.31 MB

     Dynamical RAM for           str. fact:       0.04 MB

     Dynamical RAM for           local pot:       0.00 MB

     Dynamical RAM for          nlocal pot:       0.46 MB

     Dynamical RAM for                qrad:      20.10 MB

     Dynamical RAM for          rho,v,vnew:       0.70 MB

     Dynamical RAM for               rhoin:       0.23 MB

     Dynamical RAM for            rho*nmix:       1.31 MB

     Dynamical RAM for           G-vectors:       0.09 MB

     Dynamical RAM for          h,s,v(r/c):       0.04 MB

     Dynamical RAM for          <psi|beta>:       0.38 MB

     Dynamical RAM for                 psi:       0.71 MB

     Dynamical RAM for                hpsi:       0.71 MB

     Dynamical RAM for      wfcinit/wfcrot:       0.67 MB

     Estimated static dynamical RAM per process >      67.30 MB

     Estimated max dynamical RAM per process >      70.46 MB

     Estimated total dynamical RAM >       2.20 GB

     Initial potential from superposition of free atoms

     starting charge      57.9997, renormalised to      58.0000
     Starting wfcs are   72 randomized atomic wfcs

     total cpu time spent up to now is        6.6 secs

     Self-consistent Calculation

     iteration #  1     ecut=    80.00 Ry     beta= 0.70
     Davidson diagonalization with overlap

---- Real-time Memory Report at c_bands before calling an iterative solver
           123 MiB given to the printing process from OS
             0 MiB allocation reported by mallinfo(arena+hblkhd)
        227312 MiB available memory on the node where the printing process lives
------------------
     ethr =  1.00E-02,  avg # of iterations =  2.8

     total cpu time spent up to now is       28.7 secs

     total energy              =    -552.42673998 Ry
     estimated scf accuracy    <       1.21457436 Ry

     iteration #  2     ecut=    80.00 Ry     beta= 0.70
     Davidson diagonalization with overlap

---- Real-time Memory Report at c_bands before calling an iterative solver
           132 MiB given to the printing process from OS
             0 MiB allocation reported by mallinfo(arena+hblkhd)
        227145 MiB available memory on the node where the printing process lives
------------------
     ethr =  2.09E-03,  avg # of iterations =  2.0

     total cpu time spent up to now is       52.5 secs

     total energy              =    -552.28377337 Ry
     estimated scf accuracy    <       4.27512247 Ry

     iteration #  3     ecut=    80.00 Ry     beta= 0.70
     Davidson diagonalization with overlap

---- Real-time Memory Report at c_bands before calling an iterative solver
           133 MiB given to the printing process from OS
             0 MiB allocation reported by mallinfo(arena+hblkhd)
        227126 MiB available memory on the node where the printing process lives
------------------
     ethr =  2.09E-03,  avg # of iterations =  2.0

     total cpu time spent up to now is       74.8 secs

     total energy              =    -553.07592230 Ry
     estimated scf accuracy    <       0.03328436 Ry

     iteration #  4     ecut=    80.00 Ry     beta= 0.70
     Davidson diagonalization with overlap

---- Real-time Memory Report at c_bands before calling an iterative solver
           133 MiB given to the printing process from OS
             0 MiB allocation reported by mallinfo(arena+hblkhd)
        227103 MiB available memory on the node where the printing process lives
------------------
     ethr =  5.74E-05,  avg # of iterations =  2.6

     total cpu time spent up to now is       97.6 secs

     total energy              =    -553.07950392 Ry
     estimated scf accuracy    <       0.00475539 Ry

     iteration #  5     ecut=    80.00 Ry     beta= 0.70
     Davidson diagonalization with overlap

---- Real-time Memory Report at c_bands before calling an iterative solver
           134 MiB given to the printing process from OS
             0 MiB allocation reported by mallinfo(arena+hblkhd)
        227094 MiB available memory on the node where the printing process lives
------------------
     ethr =  8.20E-06,  avg # of iterations =  2.3

     total cpu time spent up to now is      117.5 secs

     total energy              =    -553.08032392 Ry
     estimated scf accuracy    <       0.00024297 Ry

     iteration #  6     ecut=    80.00 Ry     beta= 0.70
     Davidson diagonalization with overlap

---- Real-time Memory Report at c_bands before calling an iterative solver
           135 MiB given to the printing process from OS
             0 MiB allocation reported by mallinfo(arena+hblkhd)
        227082 MiB available memory on the node where the printing process lives
------------------
     ethr =  4.19E-07,  avg # of iterations =  3.0

     total cpu time spent up to now is      138.4 secs

     total energy              =    -553.08035610 Ry
     estimated scf accuracy    <       0.00000870 Ry

     iteration #  7     ecut=    80.00 Ry     beta= 0.70
     Davidson diagonalization with overlap

---- Real-time Memory Report at c_bands before calling an iterative solver
           136 MiB given to the printing process from OS
             0 MiB allocation reported by mallinfo(arena+hblkhd)
        227075 MiB available memory on the node where the printing process lives
------------------
     ethr =  1.50E-08,  avg # of iterations =  2.0

     total cpu time spent up to now is      161.8 secs

     total energy              =    -553.08035908 Ry
     estimated scf accuracy    <       0.00000056 Ry

     iteration #  8     ecut=    80.00 Ry     beta= 0.70
     Davidson diagonalization with overlap

---- Real-time Memory Report at c_bands before calling an iterative solver
           140 MiB given to the printing process from OS
             0 MiB allocation reported by mallinfo(arena+hblkhd)
        226996 MiB available memory on the node where the printing process lives
------------------
     ethr =  9.63E-10,  avg # of iterations =  2.1

     total cpu time spent up to now is      181.5 secs

     total energy              =    -553.08035912 Ry
     estimated scf accuracy    <       0.00000007 Ry

     iteration #  9     ecut=    80.00 Ry     beta= 0.70
     Davidson diagonalization with overlap

---- Real-time Memory Report at c_bands before calling an iterative solver
           140 MiB given to the printing process from OS
             0 MiB allocation reported by mallinfo(arena+hblkhd)
        226994 MiB available memory on the node where the printing process lives
------------------
     ethr =  1.28E-10,  avg # of iterations =  2.0

     total cpu time spent up to now is      203.6 secs

     total energy              =    -553.08035913 Ry
     estimated scf accuracy    <          4.1E-09 Ry

     iteration # 10     ecut=    80.00 Ry     beta= 0.70
     Davidson diagonalization with overlap

---- Real-time Memory Report at c_bands before calling an iterative solver
           141 MiB given to the printing process from OS
             0 MiB allocation reported by mallinfo(arena+hblkhd)
        226989 MiB available memory on the node where the printing process lives
------------------
     ethr =  6.99E-12,  avg # of iterations =  2.4

     total cpu time spent up to now is      226.2 secs

     End of self-consistent calculation

          k = 0.0000 0.0000 0.0000 (  5409 PWs)   bands (ev):

   -79.3835 -79.3835 -79.3822 -79.3822 -46.2260 -46.2260 -46.2153 -46.2153
   -32.7650 -32.7650 -32.7543 -32.7543 -32.6216 -32.6216 -32.6073 -32.6073
    -7.0744  -7.0744  -5.9186  -5.9186  -5.0036  -5.0036  -4.8021  -4.8021
     4.2689   4.2689   4.5161   4.5161   6.0331   6.0331   6.1445   6.1445
     6.2584   6.2584   8.7859   8.7859   8.9379   8.9379   9.1955   9.1955
    10.3329  10.3329  10.9881  10.9881  10.9911  10.9911  11.0306  11.0306
    11.2048  11.2048  11.3858  11.3858  11.6462  11.6462  11.6733  11.6733
    12.0588  12.0588  14.6455  14.6455  15.0720  15.0720  17.6887  17.6887
    17.8969  17.8969  18.0458  18.0458  19.4480  19.4480

     occupation numbers 
     1.0000   1.0000   1.0000   1.0000   1.0000   1.0000   1.0000   1.0000
     1.0000   1.0000   1.0000   1.0000   1.0000   1.0000   1.0000   1.0000
     1.0000   1.0000   1.0000   1.0000   1.0000   1.0000   1.0000   1.0000
     1.0000   1.0000   1.0000   1.0000   1.0000   1.0000   1.0000   1.0000
     1.0000   1.0000   1.0000   1.0000   1.0000   1.0000   1.0000   1.0000
     1.0000   1.0000   1.0000   1.0000   1.0000   1.0000   1.0000   1.0000
     1.0000   1.0000   1.0000   1.0000   1.0000   1.0000   1.0000   1.0000
     1.0000   1.0000  -0.0000  -0.0000  -0.0000  -0.0000  -0.0000  -0.0000
    -0.0000  -0.0000  -0.0000  -0.0000  -0.0000  -0.0000

          k = 0.0000 0.0000 0.1295 (  5381 PWs)   bands (ev):

   -79.3833 -79.3833 -79.3821 -79.3821 -46.2267 -46.2267 -46.2164 -46.2164
   -32.7667 -32.7667 -32.7588 -32.7588 -32.6251 -32.6251 -32.6089 -32.6089
    -6.9986  -6.9986  -5.8786  -5.8786  -5.0396  -5.0396  -4.8502  -4.8502
     4.3789   4.3789   4.5960   4.5960   6.0993   6.0993   6.1898   6.1898
     6.3381   6.3381   8.4823   8.4823   9.0019   9.0019   9.2535   9.2535
     9.8300   9.8300  10.3608  10.3608  10.4820  10.4820  11.3781  11.3781
    11.5195  11.5195  11.5937  11.5937  11.5986  11.5986  12.1186  12.1186
    12.2745  12.2745  14.8264  14.8264  14.9938  14.9938  17.4887  17.4887
    17.8154  17.8154  18.1243  18.1243  19.2879  19.2879

     occupation numbers 
     1.0000   1.0000   1.0000   1.0000   1.0000   1.0000   1.0000   1.0000
     1.0000   1.0000   1.0000   1.0000   1.0000   1.0000   1.0000   1.0000
     1.0000   1.0000   1.0000   1.0000   1.0000   1.0000   1.0000   1.0000
     1.0000   1.0000   1.0000   1.0000   1.0000   1.0000   1.0000   1.0000
     1.0000   1.0000   1.0000   1.0000   1.0000   1.0000   1.0000   1.0000
     1.0000   1.0000   1.0000   1.0000   1.0000   1.0000   1.0000   1.0000
     1.0000   1.0000   1.0000   1.0000   1.0000   1.0000   1.0000   1.0000
     1.0000   1.0000  -0.0000  -0.0000  -0.0000  -0.0000  -0.0000  -0.0000
    -0.0000  -0.0000  -0.0000  -0.0000  -0.0000  -0.0000

          k = 0.0000 0.0000 0.2590 (  5377 PWs)   bands (ev):

   -79.3828 -79.3828 -79.3816 -79.3816 -46.2284 -46.2284 -46.2194 -46.2194
   -32.7730 -32.7730 -32.7713 -32.7713 -32.6326 -32.6326 -32.6131 -32.6131
    -6.7856  -6.7856  -5.7775  -5.7775  -5.1329  -5.1329  -4.9772  -4.9772
     4.6945   4.6945   4.8176   4.8176   6.2813   6.2813   6.3221   6.3221
     6.5766   6.5766   7.7947   7.7947   8.8842   8.8842   9.2875   9.2875
     9.3544   9.3544   9.7982   9.7982   9.8119   9.8119  11.0281  11.0281
    11.7221  11.7221  11.7735  11.7735  11.9874  11.9874  12.7539  12.7539
    12.7881  12.7881  14.7681  14.7681  15.2731  15.2731  17.0199  17.0199
    17.3231  17.3231  18.4036  18.4036  19.2234  19.2234

     occupation numbers 
     1.0000   1.0000   1.0000   1.0000   1.0000   1.0000   1.0000   1.0000
     1.0000   1.0000   1.0000   1.0000   1.0000   1.0000   1.0000   1.0000
     1.0000   1.0000   1.0000   1.0000   1.0000   1.0000   1.0000   1.0000
     1.0000   1.0000   1.0000   1.0000   1.0000   1.0000   1.0000   1.0000
     1.0000   1.0000   1.0000   1.0000   1.0000   1.0000   1.0000   1.0000
     1.0000   1.0000   1.0000   1.0000   1.0000   1.0000   1.0000   1.0000
     1.0000   1.0000   1.0000   1.0000   1.0000   1.0000   1.0000   1.0000
     1.0000   1.0000  -0.0000  -0.0000  -0.0000  -0.0000  -0.0000  -0.0000
    -0.0000  -0.0000  -0.0000  -0.0000  -0.0000  -0.0000

          k = 0.0000 0.0000 0.3886 (  5389 PWs)   bands (ev):

   -79.3820 -79.3820 -79.3811 -79.3811 -46.2305 -46.2305 -46.2235 -46.2235
   -32.7883 -32.7883 -32.7849 -32.7849 -32.6382 -32.6382 -32.6181 -32.6181
    -6.4767  -6.4767  -5.6674  -5.6674  -5.2467  -5.2467  -5.1403  -5.1403
     5.1246   5.1246   5.1642   5.1642   6.5167   6.5167   6.5383   6.5383
     6.9697   6.9697   7.0926   7.0926   8.0996   8.0996   8.9901   8.9901
     9.1860   9.1860   9.5011   9.5011   9.8041   9.8041  10.4169  10.4169
    11.8023  11.8023  12.0337  12.0337  12.1808  12.1808  13.3045  13.3045
    13.3312  13.3312  14.4294  14.4294  15.7528  15.7528  16.5587  16.5587
    16.8483  16.8483  17.8235  17.8235  20.1264  20.1264

     occupation numbers 
     1.0000   1.0000   1.0000   1.0000   1.0000   1.0000   1.0000   1.0000
     1.0000   1.0000   1.0000   1.0000   1.0000   1.0000   1.0000   1.0000
     1.0000   1.0000   1.0000   1.0000   1.0000   1.0000   1.0000   1.0000
     1.0000   1.0000   1.0000   1.0000   1.0000   1.0000   1.0000   1.0000
     1.0000   1.0000   1.0000   1.0000   1.0000   1.0000   1.0000   1.0000
     1.0000   1.0000   1.0000   1.0000   1.0000   1.0000   1.0000   1.0000
     1.0000   1.0000   1.0000   1.0000   1.0000   1.0000   1.0000   1.0000
     1.0000   1.0000  -0.0000  -0.0000  -0.0000  -0.0000  -0.0000  -0.0000
    -0.0000  -0.0000  -0.0000  -0.0000  -0.0000  -0.0000

          k = 0.0000 0.0000 0.5181 (  5369 PWs)   bands (ev):

   -79.3812 -79.3812 -79.3807 -79.3807 -46.2321 -46.2321 -46.2277 -46.2277
   -32.8040 -32.8040 -32.7996 -32.7996 -32.6385 -32.6385 -32.6235 -32.6235
    -6.1360  -6.1360  -5.6144  -5.6144  -5.3408  -5.3408  -5.2898  -5.2898
     5.4262   5.4262   5.6571   5.6571   6.4784   6.4784   6.8181   6.8181
     6.8768   6.8768   7.3966   7.3966   7.5357   7.5357   8.5287   8.5287
     8.6646   8.6646   9.6833   9.6833   9.7327   9.7327   9.9484   9.9484
    11.7917  11.7917  12.1579  12.1579  12.4071  12.4071  13.5971  13.5971
    13.7797  13.7797  14.1146  14.1146  16.0442  16.0442  16.2524  16.2524
    16.5635  16.5635  17.1595  17.1595  21.2718  21.2718

     occupation numbers 
     1.0000   1.0000   1.0000   1.0000   1.0000   1.0000   1.0000   1.0000
     1.0000   1.0000   1.0000   1.0000   1.0000   1.0000   1.0000   1.0000
     1.0000   1.0000   1.0000   1.0000   1.0000   1.0000   1.0000   1.0000
     1.0000   1.0000   1.0000   1.0000   1.0000   1.0000   1.0000   1.0000
     1.0000   1.0000   1.0000   1.0000   1.0000   1.0000   1.0000   1.0000
     1.0000   1.0000   1.0000   1.0000   1.0000   1.0000   1.0000   1.0000
     1.0000   1.0000   1.0000   1.0000   1.0000   1.0000   1.0000   1.0000
     1.0343   1.0343  -0.0000  -0.0000  -0.0000  -0.0000  -0.0000  -0.0000
    -0.0000  -0.0000  -0.0000  -0.0000  -0.0000  -0.0000

          k = 0.0000 0.0000 0.6476 (  5378 PWs)   bands (ev):

   -79.3807 -79.3807 -79.3805 -79.3805 -46.2324 -46.2324 -46.2309 -46.2309
   -32.8125 -32.8125 -32.8106 -32.8106 -32.6346 -32.6346 -32.6291 -32.6291
    -5.8408  -5.8408  -5.6619  -5.6619  -5.3963  -5.3963  -5.3840  -5.3840
     5.6482   5.6482   5.8004   5.8004   6.5213   6.5213   6.8997   6.8997
     7.0659   7.0659   7.0667   7.0667   8.1331   8.1331   8.2356   8.2356
     8.3335   8.3335   8.9179   8.9179   9.9040   9.9040   9.9838   9.9838
    11.8313  11.8313  11.9858  11.9858  12.8487  12.8487  13.3125  13.3125
    14.0615  14.0615  14.1242  14.1242  16.0904  16.0904  16.1171  16.1171
    16.5466  16.5466  16.7241  16.7241  22.4014  22.4014

     occupation numbers 
     1.0000   1.0000   1.0000   1.0000   1.0000   1.0000   1.0000   1.0000
     1.0000   1.0000   1.0000   1.0000   1.0000   1.0000   1.0000   1.0000
     1.0000   1.0000   1.0000   1.0000   1.0000   1.0000   1.0000   1.0000
     1.0000   1.0000   1.0000   1.0000   1.0000   1.0000   1.0000   1.0000
     1.0000   1.0000   1.0000   1.0000   1.0000   1.0000   1.0000   1.0000
     1.0000   1.0000   1.0000   1.0000   1.0000   1.0000   1.0000   1.0000
     1.0000   1.0000   1.0000   1.0000   1.0000   1.0000   1.0000   1.0000
    -0.0002  -0.0002  -0.0000  -0.0000  -0.0000  -0.0000  -0.0000  -0.0000
    -0.0000  -0.0000  -0.0000  -0.0000  -0.0000  -0.0000

          k = 0.0000 0.1000 0.0000 (  5371 PWs)   bands (ev):

   -79.3835 -79.3835 -79.3823 -79.3823 -46.2258 -46.2258 -46.2155 -46.2155
   -32.7644 -32.7644 -32.7543 -32.7543 -32.6216 -32.6216 -32.6080 -32.6080
    -7.0365  -7.0365  -5.9133  -5.9133  -5.0362  -5.0362  -4.8414  -4.8414
     4.3662   4.3662   4.5891   4.5891   6.0482   6.0482   6.1534   6.1534
     6.3206   6.3206   8.7391   8.7391   8.7902   8.7902   9.0519   9.0519
    10.1098  10.1098  10.6261  10.6261  10.8053  10.8053  11.2749  11.2749
    11.3590  11.3590  11.5536  11.5536  11.6565  11.6565  11.7897  11.7897
    12.1967  12.1967  14.8088  14.8088  15.0001  15.0001  17.6518  17.6518
    17.9911  17.9911  18.0724  18.0724  19.3574  19.3574

     occupation numbers 
     1.0000   1.0000   1.0000   1.0000   1.0000   1.0000   1.0000   1.0000
     1.0000   1.0000   1.0000   1.0000   1.0000   1.0000   1.0000   1.0000
     1.0000   1.0000   1.0000   1.0000   1.0000   1.0000   1.0000   1.0000
     1.0000   1.0000   1.0000   1.0000   1.0000   1.0000   1.0000   1.0000
     1.0000   1.0000   1.0000   1.0000   1.0000   1.0000   1.0000   1.0000
     1.0000   1.0000   1.0000   1.0000   1.0000   1.0000   1.0000   1.0000
     1.0000   1.0000   1.0000   1.0000   1.0000   1.0000   1.0000   1.0000
     1.0000   1.0000  -0.0000  -0.0000  -0.0000  -0.0000  -0.0000  -0.0000
    -0.0000  -0.0000  -0.0000  -0.0000  -0.0000  -0.0000

          k = 0.0000 0.1000 0.1295 (  5376 PWs)   bands (ev):

   -79.3833 -79.3833 -79.3821 -79.3821 -46.2264 -46.2264 -46.2166 -46.2166
   -32.7665 -32.7665 -32.7585 -32.7585 -32.6251 -32.6251 -32.6096 -32.6096
    -6.9616  -6.9616  -5.8723  -5.8723  -5.0715  -5.0715  -4.8880  -4.8880
     4.4711   4.4711   4.6684   4.6684   6.1061   6.1061   6.1907   6.1907
     6.4168   6.4168   8.4226   8.4226   8.8581   8.8581   9.1133   9.1133
     9.6570   9.6570  10.3356  10.3356  10.4009  10.4009  11.3607  11.3607
    11.5328  11.5328  11.6896  11.6896  11.7335  11.7335  12.1468  12.1468
    12.3830  12.3830  14.9107  14.9107  14.9920  14.9920  17.4229  17.4229
    17.7403  17.7403  18.3371  18.3371  19.2126  19.2126

     occupation numbers 
     1.0000   1.0000   1.0000   1.0000   1.0000   1.0000   1.0000   1.0000
     1.0000   1.0000   1.0000   1.0000   1.0000   1.0000   1.0000   1.0000
     1.0000   1.0000   1.0000   1.0000   1.0000   1.0000   1.0000   1.0000
     1.0000   1.0000   1.0000   1.0000   1.0000   1.0000   1.0000   1.0000
     1.0000   1.0000   1.0000   1.0000   1.0000   1.0000   1.0000   1.0000
     1.0000   1.0000   1.0000   1.0000   1.0000   1.0000   1.0000   1.0000
     1.0000   1.0000   1.0000   1.0000   1.0000   1.0000   1.0000   1.0000
     1.0000   1.0000  -0.0000  -0.0000  -0.0000  -0.0000  -0.0000  -0.0000
    -0.0000  -0.0000  -0.0000  -0.0000  -0.0000  -0.0000

          k = 0.0000 0.1000 0.2590 (  5371 PWs)   bands (ev):

   -79.3827 -79.3827 -79.3817 -79.3817 -46.2282 -46.2282 -46.2196 -46.2196
   -32.7749 -32.7749 -32.7690 -32.7690 -32.6326 -32.6326 -32.6136 -32.6136
    -6.7515  -6.7515  -5.7687  -5.7687  -5.1625  -5.1625  -5.0103  -5.0103
     4.7700   4.7700   4.8884   4.8884   6.2702   6.2702   6.3180   6.3180
     6.6814   6.6814   7.7354   7.7354   8.6670   8.6670   9.1314   9.1314
     9.3994   9.3994   9.7356   9.7356   9.8237   9.8237  11.1147  11.1147
    11.5785  11.5785  11.9156  11.9156  12.0878  12.0878  12.7156  12.7156
    12.8515  12.8515  14.7053  14.7053  15.4049  15.4049  16.9288  16.9288
    17.2434  17.2434  18.5415  18.5415  19.2629  19.2629

     occupation numbers 
     1.0000   1.0000   1.0000   1.0000   1.0000   1.0000   1.0000   1.0000
     1.0000   1.0000   1.0000   1.0000   1.0000   1.0000   1.0000   1.0000
     1.0000   1.0000   1.0000   1.0000   1.0000   1.0000   1.0000   1.0000
     1.0000   1.0000   1.0000   1.0000   1.0000   1.0000   1.0000   1.0000
     1.0000   1.0000   1.0000   1.0000   1.0000   1.0000   1.0000   1.0000
     1.0000   1.0000   1.0000   1.0000   1.0000   1.0000   1.0000   1.0000
     1.0000   1.0000   1.0000   1.0000   1.0000   1.0000   1.0000   1.0000
     1.0000   1.0000  -0.0000  -0.0000  -0.0000  -0.0000  -0.0000  -0.0000
    -0.0000  -0.0000  -0.0000  -0.0000  -0.0000  -0.0000

          k = 0.0000 0.1000 0.3886 (  5388 PWs)   bands (ev):

   -79.3820 -79.3820 -79.3811 -79.3811 -46.2304 -46.2304 -46.2237 -46.2237
   -32.7907 -32.7907 -32.7823 -32.7823 -32.6382 -32.6382 -32.6184 -32.6184
    -6.4486  -6.4486  -5.6588  -5.6588  -5.2705  -5.2705  -5.1640  -5.1640
     5.1742   5.1742   5.2252   5.2252   6.4718   6.4718   6.5436   6.5436
     7.0262   7.0262   7.1297   7.1297   7.9197   7.9197   9.0455   9.0455
     9.2065   9.2065   9.4481   9.4481   9.6759   9.6759  10.5180  10.5180
    11.8094  11.8094  12.0058  12.0058  12.2412  12.2412  13.2330  13.2330
    13.3655  13.3655  14.3991  14.3991  15.8398  15.8398  16.4309  16.4309
    16.7858  16.7858  17.9836  17.9836  20.2067  20.2067

     occupation numbers 
     1.0000   1.0000   1.0000   1.0000   1.0000   1.0000   1.0000   1.0000
     1.0000   1.0000   1.0000   1.0000   1.0000   1.0000   1.0000   1.0000
     1.0000   1.0000   1.0000   1.0000   1.0000   1.0000   1.0000   1.0000
     1.0000   1.0000   1.0000   1.0000   1.0000   1.0000   1.0000   1.0000
     1.0000   1.0000   1.0000   1.0000   1.0000   1.0000   1.0000   1.0000
     1.0000   1.0000   1.0000   1.0000   1.0000   1.0000   1.0000   1.0000
     1.0000   1.0000   1.0000   1.0000   1.0000   1.0000   1.0000   1.0000
     1.0000   1.0000  -0.0000  -0.0000  -0.0000  -0.0000  -0.0000  -0.0000
    -0.0000  -0.0000  -0.0000  -0.0000  -0.0000  -0.0000

          k = 0.0000 0.1000 0.5181 (  5384 PWs)   bands (ev):

   -79.3812 -79.3812 -79.3807 -79.3807 -46.2320 -46.2320 -46.2278 -46.2278
   -32.8068 -32.8068 -32.7969 -32.7969 -32.6387 -32.6387 -32.6233 -32.6233
    -6.1190  -6.1190  -5.6176  -5.6176  -5.3570  -5.3570  -5.2898  -5.2898
     5.4671   5.4671   5.6790   5.6790   6.3365   6.3365   6.7734   6.7734
     6.9816   6.9816   7.3380   7.3380   7.6416   7.6416   8.5601   8.5601
     8.7128   8.7128   9.6153   9.6153   9.8131   9.8131   9.8798   9.8798
    11.8361  11.8361  12.1725  12.1725  12.3080  12.3080  13.4658  13.4658
    13.7776  13.7776  14.1764  14.1764  15.9467  15.9467  16.0829  16.0829
    16.6514  16.6514  17.4286  17.4286  21.3262  21.3262

     occupation numbers 
     1.0000   1.0000   1.0000   1.0000   1.0000   1.0000   1.0000   1.0000
     1.0000   1.0000   1.0000   1.0000   1.0000   1.0000   1.0000   1.0000
     1.0000   1.0000   1.0000   1.0000   1.0000   1.0000   1.0000   1.0000
     1.0000   1.0000   1.0000   1.0000   1.0000   1.0000   1.0000   1.0000
     1.0000   1.0000   1.0000   1.0000   1.0000   1.0000   1.0000   1.0000
     1.0000   1.0000   1.0000   1.0000   1.0000   1.0000   1.0000   1.0000
     1.0000   1.0000   1.0000   1.0000   1.0000   1.0000   1.0000   1.0000
     1.0334   1.0334  -0.0000  -0.0000  -0.0000  -0.0000  -0.0000  -0.0000
    -0.0000  -0.0000  -0.0000  -0.0000  -0.0000  -0.0000

          k = 0.0000 0.1000 0.6476 (  5370 PWs)   bands (ev):

   -79.3807 -79.3807 -79.3805 -79.3805 -46.2324 -46.2324 -46.2308 -46.2308
   -32.8164 -32.8164 -32.8068 -32.8068 -32.6359 -32.6359 -32.6278 -32.6278
    -5.8422  -5.8422  -5.6764  -5.6764  -5.4134  -5.4134  -5.3480  -5.3480
     5.6647   5.6647   5.8133   5.8133   6.3263   6.3263   6.6420   6.6420
     7.2567   7.2567   7.2823   7.2823   8.1887   8.1887   8.2429   8.2429
     8.4089   8.4089   9.0238   9.0238   9.8420   9.8420   9.9154   9.9154
    11.8431  11.8431  11.9856  11.9856  12.7254  12.7254  13.1939  13.1939
    14.0142  14.0142  14.2355  14.2355  15.8100  15.8100  15.9198  15.9198
    16.7855  16.7855  17.0775  17.0775  22.4265  22.4265

     occupation numbers 
     1.0000   1.0000   1.0000   1.0000   1.0000   1.0000   1.0000   1.0000
     1.0000   1.0000   1.0000   1.0000   1.0000   1.0000   1.0000   1.0000
     1.0000   1.0000   1.0000   1.0000   1.0000   1.0000   1.0000   1.0000
     1.0000   1.0000   1.0000   1.0000   1.0000   1.0000   1.0000   1.0000
     1.0000   1.0000   1.0000   1.0000   1.0000   1.0000   1.0000   1.0000
     1.0000   1.0000   1.0000   1.0000   1.0000   1.0000   1.0000   1.0000
     1.0000   1.0000   1.0000   1.0000   1.0000   1.0000   1.0000   1.0000
    -0.0052  -0.0052  -0.0000  -0.0000  -0.0000  -0.0000  -0.0000  -0.0000
    -0.0000  -0.0000  -0.0000  -0.0000  -0.0000  -0.0000

          k = 0.0000 0.2000 0.0000 (  5363 PWs)   bands (ev):

   -79.3834 -79.3834 -79.3823 -79.3823 -46.2250 -46.2250 -46.2163 -46.2163
   -32.7629 -32.7629 -32.7542 -32.7542 -32.6216 -32.6216 -32.6100 -32.6100
    -6.9255  -6.9255  -5.9073  -5.9073  -5.1304  -5.1304  -4.9385  -4.9385
     4.6387   4.6387   4.7998   4.7998   6.0871   6.0871   6.1771   6.1771
     6.5091   6.5091   8.4060   8.4060   8.5610   8.5610   8.7544   8.7544
     9.7132   9.7132   9.9929   9.9929  10.6484  10.6484  11.4542  11.4542
    11.5640  11.5640  11.6601  11.6601  11.9155  11.9155  12.0586  12.0586
    12.4788  12.4788  14.7654  14.7654  15.2857  15.2857  17.5407  17.5407
    17.8448  17.8448  18.5604  18.5604  19.0921  19.0921

     occupation numbers 
     1.0000   1.0000   1.0000   1.0000   1.0000   1.0000   1.0000   1.0000
     1.0000   1.0000   1.0000   1.0000   1.0000   1.0000   1.0000   1.0000
     1.0000   1.0000   1.0000   1.0000   1.0000   1.0000   1.0000   1.0000
     1.0000   1.0000   1.0000   1.0000   1.0000   1.0000   1.0000   1.0000
     1.0000   1.0000   1.0000   1.0000   1.0000   1.0000   1.0000   1.0000
     1.0000   1.0000   1.0000   1.0000   1.0000   1.0000   1.0000   1.0000
     1.0000   1.0000   1.0000   1.0000   1.0000   1.0000   1.0000   1.0000
     1.0000   1.0000  -0.0000  -0.0000  -0.0000  -0.0000  -0.0000  -0.0000
    -0.0000  -0.0000  -0.0000  -0.0000  -0.0000  -0.0000

          k = 0.0000 0.2000 0.1295 (  5363 PWs)   bands (ev):

   -79.3832 -79.3832 -79.3822 -79.3822 -46.2257 -46.2257 -46.2174 -46.2174
   -32.7660 -32.7660 -32.7576 -32.7576 -32.6250 -32.6250 -32.6114 -32.6114
    -6.8532  -6.8532  -5.8622  -5.8622  -5.1651  -5.1651  -4.9809  -4.9809
     4.7300   4.7300   4.8784   4.8784   6.1331   6.1331   6.2044   6.2044
     6.6226   6.6226   8.2995   8.2995   8.4784   8.4784   8.7501   8.7501
     9.2372   9.2372  10.0459  10.0459  10.4031  10.4031  11.3233  11.3233
    11.6166  11.6166  11.9040  11.9040  11.9840  11.9840  12.2711  12.2711
    12.6282  12.6282  14.7022  14.7022  15.4167  15.4167  17.2737  17.2737
    17.5867  17.5867  18.8380  18.8380  18.9909  18.9909

     occupation numbers 
     1.0000   1.0000   1.0000   1.0000   1.0000   1.0000   1.0000   1.0000
     1.0000   1.0000   1.0000   1.0000   1.0000   1.0000   1.0000   1.0000
     1.0000   1.0000   1.0000   1.0000   1.0000   1.0000   1.0000   1.0000
     1.0000   1.0000   1.0000   1.0000   1.0000   1.0000   1.0000   1.0000
     1.0000   1.0000   1.0000   1.0000   1.0000   1.0000   1.0000   1.0000
     1.0000   1.0000   1.0000   1.0000   1.0000   1.0000   1.0000   1.0000
     1.0000   1.0000   1.0000   1.0000   1.0000   1.0000   1.0000   1.0000
     1.0000   1.0000  -0.0000  -0.0000  -0.0000  -0.0000  -0.0000  -0.0000
    -0.0000  -0.0000  -0.0000  -0.0000  -0.0000  -0.0000

          k = 0.0000 0.2000 0.2590 (  5361 PWs)   bands (ev):

   -79.3826 -79.3826 -79.3818 -79.3818 -46.2276 -46.2276 -46.2203 -46.2203
   -32.7769 -32.7769 -32.7661 -32.7661 -32.6325 -32.6325 -32.6149 -32.6149
    -6.6515  -6.6515  -5.7481  -5.7481  -5.2534  -5.2534  -5.0907  -5.0907
     4.9836   4.9836   5.0942   5.0942   6.2731   6.2731   6.3226   6.3226
     6.9125   6.9125   7.6237   7.6237   8.2589   8.2589   8.7627   8.7627
     9.0552   9.0552   9.7876   9.7876   9.9053   9.9053  11.2402  11.2402
    11.4162  11.4162  12.1703  12.1703  12.2805  12.2805  12.6563  12.6563
    13.0031  13.0031  14.5243  14.5243  15.7512  15.7512  16.7110  16.7110
    17.0937  17.0937  18.6499  18.6499  19.5408  19.5408

     occupation numbers 
     1.0000   1.0000   1.0000   1.0000   1.0000   1.0000   1.0000   1.0000
     1.0000   1.0000   1.0000   1.0000   1.0000   1.0000   1.0000   1.0000
     1.0000   1.0000   1.0000   1.0000   1.0000   1.0000   1.0000   1.0000
     1.0000   1.0000   1.0000   1.0000   1.0000   1.0000   1.0000   1.0000
     1.0000   1.0000   1.0000   1.0000   1.0000   1.0000   1.0000   1.0000
     1.0000   1.0000   1.0000   1.0000   1.0000   1.0000   1.0000   1.0000
     1.0000   1.0000   1.0000   1.0000   1.0000   1.0000   1.0000   1.0000
     1.0000   1.0000  -0.0000  -0.0000  -0.0000  -0.0000  -0.0000  -0.0000
    -0.0000  -0.0000  -0.0000  -0.0000  -0.0000  -0.0000

          k = 0.0000 0.2000 0.3886 (  5388 PWs)   bands (ev):

   -79.3819 -79.3819 -79.3812 -79.3812 -46.2299 -46.2299 -46.2242 -46.2242
   -32.7938 -32.7938 -32.7788 -32.7788 -32.6381 -32.6381 -32.6191 -32.6191
    -6.3663  -6.3663  -5.6343  -5.6343  -5.3487  -5.3487  -5.2207  -5.2207
     5.3214   5.3214   5.3960   5.3960   6.4117   6.4117   6.5493   6.5493
     6.9850   6.9850   7.3903   7.3903   7.5536   7.5536   8.8584   8.8584
     9.2140   9.2140   9.3987   9.3987   9.5584   9.5584  10.7729  10.7729
    11.5569  11.5569  12.1793  12.1793  12.3742  12.3742  13.0518  13.0518
    13.4581  13.4581  14.3094  14.3094  15.9695  15.9695  16.1547  16.1547
    16.7905  16.7905  18.2256  18.2256  20.4664  20.4664

     occupation numbers 
     1.0000   1.0000   1.0000   1.0000   1.0000   1.0000   1.0000   1.0000
     1.0000   1.0000   1.0000   1.0000   1.0000   1.0000   1.0000   1.0000
     1.0000   1.0000   1.0000   1.0000   1.0000   1.0000   1.0000   1.0000
     1.0000   1.0000   1.0000   1.0000   1.0000   1.0000   1.0000   1.0000
     1.0000   1.0000   1.0000   1.0000   1.0000   1.0000   1.0000   1.0000
     1.0000   1.0000   1.0000   1.0000   1.0000   1.0000   1.0000   1.0000
     1.0000   1.0000   1.0000   1.0000   1.0000   1.0000   1.0000   1.0000
     1.0000   1.0000  -0.0000  -0.0000  -0.0000  -0.0000  -0.0000  -0.0000
    -0.0000  -0.0000  -0.0000  -0.0000  -0.0000  -0.0000

          k = 0.0000 0.2000 0.5181 (  5385 PWs)   bands (ev):

   -79.3812 -79.3812 -79.3807 -79.3807 -46.2318 -46.2318 -46.2281 -46.2281
   -32.8105 -32.8105 -32.7931 -32.7931 -32.6394 -32.6394 -32.6228 -32.6228
    -6.0699  -6.0699  -5.6300  -5.6300  -5.3942  -5.3942  -5.2953  -5.2953
     5.5763   5.5763   5.7396   5.7396   6.1372   6.1372   6.6199   6.6199
     7.1400   7.1400   7.2252   7.2252   7.9054   7.9054   8.5828   8.5828
     8.8535   8.8535   9.4470   9.4470   9.6477   9.6477  10.1279  10.1279
    11.8242  11.8242  12.1098  12.1098  12.2382  12.2382  13.1409  13.1409
    13.8324  13.8324  14.2513  14.2513  15.6693  15.6693  15.8255  15.8255
    16.9834  16.9834  17.8457  17.8457  21.4944  21.4944

     occupation numbers 
     1.0000   1.0000   1.0000   1.0000   1.0000   1.0000   1.0000   1.0000
     1.0000   1.0000   1.0000   1.0000   1.0000   1.0000   1.0000   1.0000
     1.0000   1.0000   1.0000   1.0000   1.0000   1.0000   1.0000   1.0000
     1.0000   1.0000   1.0000   1.0000   1.0000   1.0000   1.0000   1.0000
     1.0000   1.0000   1.0000   1.0000   1.0000   1.0000   1.0000   1.0000
     1.0000   1.0000   1.0000   1.0000   1.0000   1.0000   1.0000   1.0000
     1.0000   1.0000   1.0000   1.0000   1.0000   1.0000   1.0000   1.0000
     0.8938   0.8938  -0.0000  -0.0000  -0.0000  -0.0000  -0.0000  -0.0000
    -0.0000  -0.0000  -0.0000  -0.0000  -0.0000  -0.0000

          k = 0.0000 0.2000 0.6476 (  5374 PWs)   bands (ev):

   -79.3807 -79.3807 -79.3805 -79.3805 -46.2325 -46.2325 -46.2308 -46.2308
   -32.8208 -32.8208 -32.8026 -32.8026 -32.6381 -32.6381 -32.6256 -32.6256
    -5.8448  -5.8448  -5.7125  -5.7125  -5.4139  -5.4139  -5.3009  -5.3009
     5.6839   5.6839   5.8159   5.8159   6.0876   6.0876   6.3650   6.3650
     7.4398   7.4398   7.5588   7.5588   8.1284   8.1284   8.3927   8.3927
     8.7055   8.7055   9.2916   9.2916   9.7043   9.7043   9.7444   9.7444
    11.8585  11.8585  11.9694  11.9694  12.4127  12.4127  12.8804  12.8804
    14.0349  14.0349  14.3562  14.3562  15.4791  15.4791  15.5885  15.5885
    17.2484  17.2484  17.5765  17.5765  22.5030  22.5030

     occupation numbers 
     1.0000   1.0000   1.0000   1.0000   1.0000   1.0000   1.0000   1.0000
     1.0000   1.0000   1.0000   1.0000   1.0000   1.0000   1.0000   1.0000
     1.0000   1.0000   1.0000   1.0000   1.0000   1.0000   1.0000   1.0000
     1.0000   1.0000   1.0000   1.0000   1.0000   1.0000   1.0000   1.0000
     1.0000   1.0000   1.0000   1.0000   1.0000   1.0000   1.0000   1.0000
     1.0000   1.0000   1.0000   1.0000   1.0000   1.0000   1.0000   1.0000
     1.0000   1.0000   1.0000   1.0000   1.0000   1.0000   1.0000   1.0000
    -0.0016  -0.0016  -0.0000  -0.0000  -0.0000  -0.0000  -0.0000  -0.0000
    -0.0000  -0.0000  -0.0000  -0.0000  -0.0000  -0.0000

          k = 0.0000 0.3000 0.0000 (  5376 PWs)   bands (ev):

   -79.3833 -79.3833 -79.3825 -79.3825 -46.2238 -46.2238 -46.2175 -46.2175
   -32.7607 -32.7607 -32.7544 -32.7544 -32.6211 -32.6211 -32.6127 -32.6127
    -6.7500  -6.7500  -5.9374  -5.9374  -5.2485  -5.2485  -5.0553  -5.0553
     5.0263   5.0263   5.1208   5.1208   6.1394   6.1394   6.2071   6.2071
     6.8201   6.8201   7.9253   7.9253   8.0918   8.0918   8.6368   8.6368
     9.2535   9.2535   9.3468   9.3468  10.6049  10.6049  11.2605  11.2605
    11.8275  11.8275  11.9387  11.9387  12.1603  12.1603  12.3372  12.3372
    12.8197  12.8197  14.4432  14.4432  15.9291  15.9291  17.4019  17.4019
    17.6522  17.6522  18.6571  18.6571  19.2560  19.2560

     occupation numbers 
     1.0000   1.0000   1.0000   1.0000   1.0000   1.0000   1.0000   1.0000
     1.0000   1.0000   1.0000   1.0000   1.0000   1.0000   1.0000   1.0000
     1.0000   1.0000   1.0000   1.0000   1.0000   1.0000   1.0000   1.0000
     1.0000   1.0000   1.0000   1.0000   1.0000   1.0000   1.0000   1.0000
     1.0000   1.0000   1.0000   1.0000   1.0000   1.0000   1.0000   1.0000
     1.0000   1.0000   1.0000   1.0000   1.0000   1.0000   1.0000   1.0000
     1.0000   1.0000   1.0000   1.0000   1.0000   1.0000   1.0000   1.0000
     1.0000   1.0000  -0.0000  -0.0000  -0.0000  -0.0000  -0.0000  -0.0000
    -0.0000  -0.0000  -0.0000  -0.0000  -0.0000  -0.0000

          k = 0.0000 0.3000 0.1295 (  5375 PWs)   bands (ev):

   -79.3831 -79.3831 -79.3823 -79.3823 -46.2246 -46.2246 -46.2185 -46.2185
   -32.7654 -32.7654 -32.7564 -32.7564 -32.6247 -32.6247 -32.6138 -32.6138
    -6.6815  -6.6815  -5.8849  -5.8849  -5.2845  -5.2845  -5.0925  -5.0925
     5.1007   5.1007   5.2019   5.2019   6.1710   6.1710   6.2252   6.2252
     6.9264   6.9264   8.0103   8.0103   8.1421   8.1421   8.3386   8.3386
     8.7353   8.7353   9.5403   9.5403  10.5298  10.5298  11.2073  11.2073
    11.8048  11.8048  12.0035  12.0035  12.2872  12.2872  12.4931  12.4931
    12.9252  12.9252  14.3894  14.3894  16.0098  16.0098  17.1106  17.1106
    17.4006  17.4006  18.6092  18.6092  19.5234  19.5234

     occupation numbers 
     1.0000   1.0000   1.0000   1.0000   1.0000   1.0000   1.0000   1.0000
     1.0000   1.0000   1.0000   1.0000   1.0000   1.0000   1.0000   1.0000
     1.0000   1.0000   1.0000   1.0000   1.0000   1.0000   1.0000   1.0000
     1.0000   1.0000   1.0000   1.0000   1.0000   1.0000   1.0000   1.0000
     1.0000   1.0000   1.0000   1.0000   1.0000   1.0000   1.0000   1.0000
     1.0000   1.0000   1.0000   1.0000   1.0000   1.0000   1.0000   1.0000
     1.0000   1.0000   1.0000   1.0000   1.0000   1.0000   1.0000   1.0000
     1.0000   1.0000  -0.0000  -0.0000  -0.0000  -0.0000  -0.0000  -0.0000
    -0.0000  -0.0000  -0.0000  -0.0000  -0.0000  -0.0000

          k = 0.0000 0.3000 0.2590 (  5373 PWs)   bands (ev):

   -79.3825 -79.3825 -79.3819 -79.3819 -46.2266 -46.2266 -46.2213 -46.2213
   -32.7783 -32.7783 -32.7635 -32.7635 -32.6321 -32.6321 -32.6168 -32.6168
    -6.4931  -6.4931  -5.7474  -5.7474  -5.3787  -5.3787  -5.1866  -5.1866
     5.2995   5.2995   5.4104   5.4104   6.2865   6.2865   6.3446   6.3446
     7.1024   7.1024   7.6448   7.6448   7.8510   7.8510   8.2918   8.2918
     8.5625   8.5625   9.5535   9.5535  10.1807  10.1807  11.0161  11.0161
    11.6934  11.6934  12.3071  12.3071  12.4421  12.4421  12.7270  12.7270
    13.1967  13.1967  14.2638  14.2638  16.1481  16.1481  16.4977  16.4977
    16.9880  16.9880  18.4808  18.4808  20.1278  20.1278

     occupation numbers 
     1.0000   1.0000   1.0000   1.0000   1.0000   1.0000   1.0000   1.0000
     1.0000   1.0000   1.0000   1.0000   1.0000   1.0000   1.0000   1.0000
     1.0000   1.0000   1.0000   1.0000   1.0000   1.0000   1.0000   1.0000
     1.0000   1.0000   1.0000   1.0000   1.0000   1.0000   1.0000   1.0000
     1.0000   1.0000   1.0000   1.0000   1.0000   1.0000   1.0000   1.0000
     1.0000   1.0000   1.0000   1.0000   1.0000   1.0000   1.0000   1.0000
     1.0000   1.0000   1.0000   1.0000   1.0000   1.0000   1.0000   1.0000
     1.0000   1.0000  -0.0000  -0.0000  -0.0000  -0.0000  -0.0000  -0.0000
    -0.0000  -0.0000  -0.0000  -0.0000  -0.0000  -0.0000

          k = 0.0000 0.3000 0.3886 (  5376 PWs)   bands (ev):

   -79.3818 -79.3818 -79.3813 -79.3813 -46.2292 -46.2292 -46.2249 -46.2249
   -32.7962 -32.7962 -32.7759 -32.7759 -32.6380 -32.6380 -32.6200 -32.6200
    -6.2362  -6.2362  -5.6049  -5.6049  -5.4756  -5.4756  -5.2877  -5.2877
     5.5494   5.5494   5.6478   5.6478   6.3769   6.3769   6.5623   6.5623
     6.9079   6.9079   7.1505   7.1505   7.7596   7.7596   8.5171   8.5171
     8.8686   8.8686   9.3628   9.3628   9.7864   9.7864  10.9265  10.9265
    11.3831  11.3831  12.3538  12.3538  12.4753  12.4753  12.8848  12.8848
    13.5589  13.5589  14.1932  14.1932  15.8143  15.8143  15.9985  15.9985
    17.0515  17.0515  18.3110  18.3110  20.9174  20.9174

     occupation numbers 
     1.0000   1.0000   1.0000   1.0000   1.0000   1.0000   1.0000   1.0000
     1.0000   1.0000   1.0000   1.0000   1.0000   1.0000   1.0000   1.0000
     1.0000   1.0000   1.0000   1.0000   1.0000   1.0000   1.0000   1.0000
     1.0000   1.0000   1.0000   1.0000   1.0000   1.0000   1.0000   1.0000
     1.0000   1.0000   1.0000   1.0000   1.0000   1.0000   1.0000   1.0000
     1.0000   1.0000   1.0000   1.0000   1.0000   1.0000   1.0000   1.0000
     1.0000   1.0000   1.0000   1.0000   1.0000   1.0000   1.0000   1.0000
     1.0000   1.0000  -0.0000  -0.0000  -0.0000  -0.0000  -0.0000  -0.0000
    -0.0000  -0.0000  -0.0000  -0.0000  -0.0000  -0.0000

          k = 0.0000 0.3000 0.5181 (  5370 PWs)   bands (ev):

   -79.3811 -79.3811 -79.3808 -79.3808 -46.2314 -46.2314 -46.2284 -46.2284
   -32.8136 -32.8136 -32.7900 -32.7900 -32.6401 -32.6401 -32.6223 -32.6223
    -5.9946  -5.9946  -5.6607  -5.6607  -5.4346  -5.4346  -5.3068  -5.3068
     5.7020   5.7020   5.8184   5.8184   6.0273   6.0273   6.4228   6.4228
     7.0867   7.0867   7.3593   7.3593   8.0693   8.0693   8.6623   8.6623
     8.9901   8.9901   9.1812   9.1812   9.5825   9.5825  10.5100  10.5100
    11.4807  11.4807  12.1509  12.1509  12.2406  12.2406  12.7871  12.7871
    13.8947  13.8947  14.3009  14.3009  15.3856  15.3856  15.6035  15.6035
    17.4071  17.4071  18.1535  18.1535  21.7856  21.7856

     occupation numbers 
     1.0000   1.0000   1.0000   1.0000   1.0000   1.0000   1.0000   1.0000
     1.0000   1.0000   1.0000   1.0000   1.0000   1.0000   1.0000   1.0000
     1.0000   1.0000   1.0000   1.0000   1.0000   1.0000   1.0000   1.0000
     1.0000   1.0000   1.0000   1.0000   1.0000   1.0000   1.0000   1.0000
     1.0000   1.0000   1.0000   1.0000   1.0000   1.0000   1.0000   1.0000
     1.0000   1.0000   1.0000   1.0000   1.0000   1.0000   1.0000   1.0000
     1.0000   1.0000   1.0000   1.0000   1.0000   1.0000   1.0000   1.0000
     0.2084   0.2084  -0.0000  -0.0000  -0.0000  -0.0000  -0.0000  -0.0000
    -0.0000  -0.0000  -0.0000  -0.0000  -0.0000  -0.0000

          k = 0.0000 0.3000 0.6476 (  5369 PWs)   bands (ev):

   -79.3807 -79.3807 -79.3806 -79.3806 -46.2325 -46.2325 -46.2307 -46.2307
   -32.8242 -32.8242 -32.7994 -32.7994 -32.6401 -32.6401 -32.6236 -32.6236
    -5.8449  -5.8449  -5.7553  -5.7553  -5.4021  -5.4021  -5.2599  -5.2599
     5.6237   5.6237   5.7052   5.7052   6.0703   6.0703   6.2280   6.2280
     7.4921   7.4921   7.8593   7.8593   8.0563   8.0563   8.5219   8.5219
     9.1203   9.1203   9.2887   9.2887   9.5827   9.5827   9.9292   9.9292
    11.7318  11.7318  11.9339  11.9339  12.0436  12.0436  12.5168  12.5168
    14.0843  14.0843  14.4374  14.4374  15.2193  15.2193  15.3320  15.3320
    17.7080  17.7080  18.0085  18.0085  22.6370  22.6370

     occupation numbers 
     1.0000   1.0000   1.0000   1.0000   1.0000   1.0000   1.0000   1.0000
     1.0000   1.0000   1.0000   1.0000   1.0000   1.0000   1.0000   1.0000
     1.0000   1.0000   1.0000   1.0000   1.0000   1.0000   1.0000   1.0000
     1.0000   1.0000   1.0000   1.0000   1.0000   1.0000   1.0000   1.0000
     1.0000   1.0000   1.0000   1.0000   1.0000   1.0000   1.0000   1.0000
     1.0000   1.0000   1.0000   1.0000   1.0000   1.0000   1.0000   1.0000
     1.0000   1.0000   1.0000   1.0000   1.0000   1.0000   1.0000   1.0000
    -0.0000  -0.0000  -0.0000  -0.0000  -0.0000  -0.0000  -0.0000  -0.0000
    -0.0000  -0.0000  -0.0000  -0.0000  -0.0000  -0.0000

          k = 0.0000 0.4000 0.0000 (  5370 PWs)   bands (ev):

   -79.3831 -79.3831 -79.3827 -79.3827 -46.2223 -46.2223 -46.2190 -46.2190
   -32.7584 -32.7584 -32.7551 -32.7551 -32.6201 -32.6201 -32.6157 -32.6157
    -6.5258  -6.5258  -6.0628  -6.0628  -5.3032  -5.3032  -5.1699  -5.1699
     5.4168   5.4168   5.4755   5.4755   6.1976   6.1976   6.2325   6.2325
     7.1968   7.1968   7.5478   7.5478   7.5810   7.5810   8.5267   8.5267
     8.6625   8.6625   9.0055   9.0055  10.6737  10.6737  11.0366  11.0366
    12.0188  12.0188  12.1126  12.1126  12.3595  12.3595  12.5057  12.5057
    13.2154  13.2154  14.0554  14.0554  16.6448  16.6448  17.3008  17.3008
    17.4780  17.4780  18.1007  18.1007  20.0225  20.0225

     occupation numbers 
     1.0000   1.0000   1.0000   1.0000   1.0000   1.0000   1.0000   1.0000
     1.0000   1.0000   1.0000   1.0000   1.0000   1.0000   1.0000   1.0000
     1.0000   1.0000   1.0000   1.0000   1.0000   1.0000   1.0000   1.0000
     1.0000   1.0000   1.0000   1.0000   1.0000   1.0000   1.0000   1.0000
     1.0000   1.0000   1.0000   1.0000   1.0000   1.0000   1.0000   1.0000
     1.0000   1.0000   1.0000   1.0000   1.0000   1.0000   1.0000   1.0000
     1.0000   1.0000   1.0000   1.0000   1.0000   1.0000   1.0000   1.0000
     1.0000   1.0000  -0.0004  -0.0004  -0.0000  -0.0000  -0.0000  -0.0000
    -0.0000  -0.0000  -0.0000  -0.0000  -0.0000  -0.0000

          k = 0.0000 0.4000 0.1295 (  5374 PWs)   bands (ev):

   -79.3829 -79.3829 -79.3825 -79.3825 -46.2232 -46.2232 -46.2200 -46.2200
   -32.7649 -32.7649 -32.7555 -32.7555 -32.6241 -32.6241 -32.6162 -32.6162
    -6.4619  -6.4619  -6.0049  -6.0049  -5.3386  -5.3386  -5.2027  -5.2027
     5.4860   5.4860   5.5712   5.5712   6.1869   6.1869   6.2272   6.2272
     7.2895   7.2895   7.6165   7.6165   7.7300   7.7300   8.2338   8.2338
     8.3372   8.3372   9.0113   9.0113  10.6934  10.6934  11.0485  11.0485
    11.9596  11.9596  12.0502  12.0502  12.5384  12.5384  12.6763  12.6763
    13.2492  13.2492  14.0224  14.0224  16.6153  16.6153  17.0182  17.0182
    17.2633  17.2633  18.1085  18.1085  20.2738  20.2738

     occupation numbers 
     1.0000   1.0000   1.0000   1.0000   1.0000   1.0000   1.0000   1.0000
     1.0000   1.0000   1.0000   1.0000   1.0000   1.0000   1.0000   1.0000
     1.0000   1.0000   1.0000   1.0000   1.0000   1.0000   1.0000   1.0000
     1.0000   1.0000   1.0000   1.0000   1.0000   1.0000   1.0000   1.0000
     1.0000   1.0000   1.0000   1.0000   1.0000   1.0000   1.0000   1.0000
     1.0000   1.0000   1.0000   1.0000   1.0000   1.0000   1.0000   1.0000
     1.0000   1.0000   1.0000   1.0000   1.0000   1.0000   1.0000   1.0000
     1.0000   1.0000  -0.0033  -0.0033  -0.0000  -0.0000  -0.0000  -0.0000
    -0.0000  -0.0000  -0.0000  -0.0000  -0.0000  -0.0000

          k = 0.0000 0.4000 0.2590 (  5381 PWs)   bands (ev):

   -79.3824 -79.3824 -79.3820 -79.3820 -46.2254 -46.2254 -46.2225 -46.2225
   -32.7791 -32.7791 -32.7617 -32.7617 -32.6317 -32.6317 -32.6185 -32.6185
    -6.2896  -6.2896  -5.8523  -5.8523  -5.4301  -5.4301  -5.2832  -5.2832
     5.6569   5.6569   5.7768   5.7768   6.2493   6.2493   6.3475   6.3475
     7.1248   7.1248   7.4628   7.4628   7.9119   7.9119   7.9593   7.9593
     8.1857   8.1857   9.1058   9.1058  10.4510  10.4510  10.8404  10.8404
    11.9499  11.9499  12.2426  12.2426  12.6301  12.6301  12.8661  12.8661
    13.3822  13.3822  13.9914  13.9914  16.2405  16.2405  16.4226  16.4226
    17.1939  17.1939  18.1295  18.1295  20.8302  20.8302

     occupation numbers 
     1.0000   1.0000   1.0000   1.0000   1.0000   1.0000   1.0000   1.0000
     1.0000   1.0000   1.0000   1.0000   1.0000   1.0000   1.0000   1.0000
     1.0000   1.0000   1.0000   1.0000   1.0000   1.0000   1.0000   1.0000
     1.0000   1.0000   1.0000   1.0000   1.0000   1.0000   1.0000   1.0000
     1.0000   1.0000   1.0000   1.0000   1.0000   1.0000   1.0000   1.0000
     1.0000   1.0000   1.0000   1.0000   1.0000   1.0000   1.0000   1.0000
     1.0000   1.0000   1.0000   1.0000   1.0000   1.0000   1.0000   1.0000
     1.0000   1.0000  -0.0147  -0.0147  -0.0000  -0.0000  -0.0000  -0.0000
[...]
     1.0000   1.0000   1.0000   1.0000   1.0000   1.0000   1.0000   1.0000
     1.0000   1.0000   1.0000   1.0000  -0.0000  -0.0000  -0.0000  -0.0000
    -0.0000  -0.0000  -0.0000  -0.0000  -0.0000  -0.0000

          k = 0.4000-0.5000 0.6476 (  5370 PWs)   bands (ev):

   -79.3806 -79.3806 -79.3806 -79.3806 -46.2320 -46.2320 -46.2314 -46.2314
   -32.8166 -32.8166 -32.8071 -32.8071 -32.6354 -32.6354 -32.6292 -32.6292
    -5.6860  -5.6860  -5.6471  -5.6471  -5.4952  -5.4952  -5.4063  -5.4063
     5.6794   5.6794   5.7347   5.7347   6.0647   6.0647   6.2650   6.2650
     6.7861   6.7861   6.8951   6.8951   8.2517   8.2517   8.3278   8.3278
     9.6035   9.6035   9.6058   9.6058  10.6015  10.6015  10.6090  10.6090
    11.9142  11.9142  11.9434  11.9434  12.3603  12.3603  12.6182  12.6182
    13.4556  13.4556  13.7014  13.7014  15.9043  15.9043  15.9080  15.9080
    17.2153  17.2153  17.2630  17.2630  23.0920  23.1192

     occupation numbers 
     1.0000   1.0000   1.0000   1.0000   1.0000   1.0000   1.0000   1.0000
     1.0000   1.0000   1.0000   1.0000   1.0000   1.0000   1.0000   1.0000
     1.0000   1.0000   1.0000   1.0000   1.0000   1.0000   1.0000   1.0000
     1.0000   1.0000   1.0000   1.0000   1.0000   1.0000   1.0000   1.0000
     1.0000   1.0000   1.0000   1.0000   1.0000   1.0000   1.0000   1.0000
     1.0000   1.0000   1.0000   1.0000   1.0000   1.0000   1.0000   1.0000
     1.0000   1.0000   1.0000   1.0000   1.0000   1.0000   1.0000   1.0000
     1.0000   1.0000   1.0013   1.0013  -0.0000  -0.0000  -0.0000  -0.0000
    -0.0000  -0.0000  -0.0000  -0.0000  -0.0000  -0.0000

          k =-0.5000-0.5000 0.0000 (  5412 PWs)   bands (ev):

   -79.3829 -79.3829 -79.3829 -79.3829 -46.2207 -46.2207 -46.2207 -46.2207
   -32.7592 -32.7592 -32.7592 -32.7592 -32.6159 -32.6159 -32.6159 -32.6159
    -6.4120  -6.4120  -6.4120  -6.4120  -5.0362  -5.0362  -5.0362  -5.0362
     4.3999   4.3999   4.3999   4.3999   6.0118   6.0118   6.0118   6.0118
     8.7365   8.7365   8.7365   8.7365   8.7782   8.7782   8.7782   8.7782
     9.5946   9.5946   9.5946   9.5946  10.3602  10.3602  10.3602  10.3602
    11.1216  11.1216  11.1216  11.1216  11.7470  11.7470  11.7470  11.7470
    14.0532  14.0532  14.0532  14.0532  16.2369  16.2369  16.2369  16.2369
    17.9272  17.9272  17.9272  17.9272  22.3951  22.8040

     occupation numbers 
     1.0000   1.0000   1.0000   1.0000   1.0000   1.0000   1.0000   1.0000
     1.0000   1.0000   1.0000   1.0000   1.0000   1.0000   1.0000   1.0000
     1.0000   1.0000   1.0000   1.0000   1.0000   1.0000   1.0000   1.0000
     1.0000   1.0000   1.0000   1.0000   1.0000   1.0000   1.0000   1.0000
     1.0000   1.0000   1.0000   1.0000   1.0000   1.0000   1.0000   1.0000
     1.0000   1.0000   1.0000   1.0000   1.0000   1.0000   1.0000   1.0000
     1.0000   1.0000   1.0000   1.0000   1.0000   1.0000   1.0000   1.0000
    -0.0005  -0.0005  -0.0005  -0.0005  -0.0000  -0.0000  -0.0000  -0.0000
    -0.0000  -0.0000  -0.0000  -0.0000  -0.0000  -0.0000

          k =-0.5000-0.5000 0.1295 (  5404 PWs)   bands (ev):

   -79.3827 -79.3827 -79.3827 -79.3827 -46.2216 -46.2216 -46.2216 -46.2216
   -32.7624 -32.7624 -32.7624 -32.7624 -32.6184 -32.6184 -32.6184 -32.6184
    -6.3515  -6.3515  -6.3515  -6.3515  -5.0752  -5.0752  -5.0752  -5.0752
     4.4886   4.4886   4.4886   4.4886   6.0114   6.0114   6.0114   6.0114
     8.7656   8.7656   8.7656   8.7656   8.9090   8.9090   8.9090   8.9090
     9.2413   9.2413   9.2413   9.2413  10.0706  10.0706  10.0706  10.0706
    11.3942  11.3942  11.3942  11.3942  11.9723  11.9723  11.9723  11.9723
    13.9634  13.9634  13.9634  13.9634  16.3522  16.3522  16.3522  16.3522
    17.7257  17.7257  17.7257  17.7257  22.5470  22.5470

     occupation numbers 
     1.0000   1.0000   1.0000   1.0000   1.0000   1.0000   1.0000   1.0000
     1.0000   1.0000   1.0000   1.0000   1.0000   1.0000   1.0000   1.0000
     1.0000   1.0000   1.0000   1.0000   1.0000   1.0000   1.0000   1.0000
     1.0000   1.0000   1.0000   1.0000   1.0000   1.0000   1.0000   1.0000
     1.0000   1.0000   1.0000   1.0000   1.0000   1.0000   1.0000   1.0000
     1.0000   1.0000   1.0000   1.0000   1.0000   1.0000   1.0000   1.0000
     1.0000   1.0000   1.0000   1.0000   1.0000   1.0000   1.0000   1.0000
    -0.0325  -0.0325  -0.0325  -0.0325  -0.0000  -0.0000  -0.0000  -0.0000
    -0.0000  -0.0000  -0.0000  -0.0000  -0.0000  -0.0000

          k =-0.5000-0.5000 0.2590 (  5384 PWs)   bands (ev):

   -79.3822 -79.3822 -79.3822 -79.3822 -46.2240 -46.2240 -46.2240 -46.2240
   -32.7721 -32.7721 -32.7721 -32.7721 -32.6239 -32.6239 -32.6239 -32.6239
    -6.1865  -6.1865  -6.1865  -6.1865  -5.1781  -5.1781  -5.1781  -5.1781
     4.7384   4.7384   4.7384   4.7384   6.0284   6.0284   6.0284   6.0284
     8.4118   8.4118   8.4118   8.4118   8.9437   8.9437   8.9437   8.9437
     9.1533   9.1533   9.1533   9.1533   9.7398   9.7398   9.7398   9.7398
    11.7466  11.7466  11.7466  11.7466  12.3945  12.3945  12.3945  12.3945
    13.7176  13.7176  13.7176  13.7176  16.5824  16.5824  16.5824  16.5824
    17.2919  17.2919  17.2919  17.2919  22.8072  22.8072

     occupation numbers 
     1.0000   1.0000   1.0000   1.0000   1.0000   1.0000   1.0000   1.0000
     1.0000   1.0000   1.0000   1.0000   1.0000   1.0000   1.0000   1.0000
     1.0000   1.0000   1.0000   1.0000   1.0000   1.0000   1.0000   1.0000
     1.0000   1.0000   1.0000   1.0000   1.0000   1.0000   1.0000   1.0000
     1.0000   1.0000   1.0000   1.0000   1.0000   1.0000   1.0000   1.0000
     1.0000   1.0000   1.0000   1.0000   1.0000   1.0000   1.0000   1.0000
     1.0000   1.0000   1.0000   1.0000   1.0000   1.0000   1.0000   1.0000
     1.0035   1.0035   1.0035   1.0035  -0.0000  -0.0000  -0.0000  -0.0000
    -0.0000  -0.0000  -0.0000  -0.0000  -0.0000  -0.0000

          k =-0.5000-0.5000 0.3886 (  5360 PWs)   bands (ev):

   -79.3816 -79.3816 -79.3816 -79.3816 -46.2271 -46.2271 -46.2271 -46.2271
   -32.7868 -32.7868 -32.7868 -32.7868 -32.6288 -32.6288 -32.6288 -32.6288
    -5.9646  -5.9646  -5.9646  -5.9646  -5.3084  -5.3084  -5.3084  -5.3084
     5.0959   5.0959   5.0959   5.0959   6.0850   6.0850   6.0850   6.0850
     7.6514   7.6514   7.6514   7.6514   8.8252   8.8252   8.8252   8.8252
     9.2302   9.2302   9.2302   9.2302   9.9924   9.9924   9.9924   9.9924
    11.9384  11.9384  11.9384  11.9384  12.7712  12.7712  12.7712  12.7712
    13.4038  13.4038  13.4038  13.4038  16.5512  16.5512  16.5512  16.5512
    17.0528  17.0528  17.0528  17.0528  22.9795  22.9795

     occupation numbers 
     1.0000   1.0000   1.0000   1.0000   1.0000   1.0000   1.0000   1.0000
     1.0000   1.0000   1.0000   1.0000   1.0000   1.0000   1.0000   1.0000
     1.0000   1.0000   1.0000   1.0000   1.0000   1.0000   1.0000   1.0000
     1.0000   1.0000   1.0000   1.0000   1.0000   1.0000   1.0000   1.0000
     1.0000   1.0000   1.0000   1.0000   1.0000   1.0000   1.0000   1.0000
     1.0000   1.0000   1.0000   1.0000   1.0000   1.0000   1.0000   1.0000
     1.0000   1.0000   1.0000   1.0000   1.0000   1.0000   1.0000   1.0000
     1.0000   1.0000   1.0000   1.0000  -0.0000  -0.0000  -0.0000  -0.0000
    -0.0000  -0.0000  -0.0000  -0.0000  -0.0000  -0.0000

          k =-0.5000-0.5000 0.5181 (  5360 PWs)   bands (ev):

   -79.3810 -79.3810 -79.3810 -79.3810 -46.2300 -46.2300 -46.2300 -46.2300
   -32.8021 -32.8021 -32.8021 -32.8021 -32.6315 -32.6315 -32.6315 -32.6315
    -5.7568  -5.7568  -5.7568  -5.7568  -5.4212  -5.4212  -5.4212  -5.4212
     5.4632   5.4632   5.4632   5.4632   6.1697   6.1697   6.1697   6.1697
     7.0417   7.0417   7.0417   7.0417   8.4940   8.4940   8.4940   8.4940
     9.4611   9.4611   9.4611   9.4611  10.3923  10.3923  10.3923  10.3923
    11.9766  11.9766  11.9766  11.9766  12.8243  12.8243  12.8243  12.8243
    13.3132  13.3132  13.3132  13.3132  16.2626  16.2626  16.2626  16.2626
    17.0542  17.0542  17.0542  17.0542  23.0899  23.0899

     occupation numbers 
     1.0000   1.0000   1.0000   1.0000   1.0000   1.0000   1.0000   1.0000
     1.0000   1.0000   1.0000   1.0000   1.0000   1.0000   1.0000   1.0000
     1.0000   1.0000   1.0000   1.0000   1.0000   1.0000   1.0000   1.0000
     1.0000   1.0000   1.0000   1.0000   1.0000   1.0000   1.0000   1.0000
     1.0000   1.0000   1.0000   1.0000   1.0000   1.0000   1.0000   1.0000
     1.0000   1.0000   1.0000   1.0000   1.0000   1.0000   1.0000   1.0000
     1.0000   1.0000   1.0000   1.0000   1.0000   1.0000   1.0000   1.0000
     1.0000   1.0000   1.0000   1.0000  -0.0000  -0.0000  -0.0000  -0.0000
    -0.0000  -0.0000  -0.0000  -0.0000  -0.0000  -0.0000

          k =-0.5000-0.5000 0.6476 (  5384 PWs)   bands (ev):

   -79.3806 -79.3806 -79.3806 -79.3806 -46.2317 -46.2317 -46.2317 -46.2317
   -32.8118 -32.8118 -32.8118 -32.8118 -32.6324 -32.6324 -32.6324 -32.6324
    -5.6405  -5.6405  -5.6405  -5.6405  -5.4760  -5.4760  -5.4760  -5.4760
     5.7061   5.7061   5.7061   5.7061   6.2322   6.2322   6.2322   6.2322
     6.7082   6.7082   6.7082   6.7082   8.2912   8.2912   8.2912   8.2912
     9.6328   9.6328   9.6328   9.6328  10.6361  10.6361  10.6361  10.6361
    11.9468  11.9468  11.9468  11.9468  12.6455  12.6455  12.6455  12.6455
    13.4310  13.4310  13.4310  13.4310  16.0957  16.0957  16.0957  16.0957
    17.0304  17.0304  17.0304  17.0304  23.0730  23.0730

     occupation numbers 
     1.0000   1.0000   1.0000   1.0000   1.0000   1.0000   1.0000   1.0000
     1.0000   1.0000   1.0000   1.0000   1.0000   1.0000   1.0000   1.0000
     1.0000   1.0000   1.0000   1.0000   1.0000   1.0000   1.0000   1.0000
     1.0000   1.0000   1.0000   1.0000   1.0000   1.0000   1.0000   1.0000
     1.0000   1.0000   1.0000   1.0000   1.0000   1.0000   1.0000   1.0000
     1.0000   1.0000   1.0000   1.0000   1.0000   1.0000   1.0000   1.0000
     1.0000   1.0000   1.0000   1.0000   1.0000   1.0000   1.0000   1.0000
     1.0000   1.0000   1.0000   1.0000  -0.0000  -0.0000  -0.0000  -0.0000
    -0.0000  -0.0000  -0.0000  -0.0000  -0.0000  -0.0000

     the Fermi energy is    13.8695 ev

!    total energy              =    -553.08035913 Ry
     estimated scf accuracy    <          1.5E-11 Ry
     smearing contrib. (-TS)   =       0.00000330 Ry
     internal energy E=F+TS    =    -553.08036244 Ry

     The total energy is F=E-TS. E is the sum of the following terms:
     one-electron contribution =    -190.91111833 Ry
     hartree contribution      =     122.73130014 Ry
     xc contribution           =     -69.91453373 Ry
     ewald contribution        =    -414.98601052 Ry

     convergence has been achieved in  10 iterations

     Forces acting on atoms (cartesian axes, Ry/au):

     atom    1 type  2   force =     0.00000000    0.00000000    0.00000000
     atom    2 type  2   force =     0.00000000    0.00000000    0.00000000
     atom    3 type  1   force =     0.00062611   -0.00062611    0.00000000
     atom    4 type  1   force =    -0.00062611   -0.00062611   -0.00000000
     atom    5 type  1   force =     0.00062611    0.00062611   -0.00000000
     atom    6 type  1   force =    -0.00062611    0.00062611    0.00000000
     The non-local contrib.  to forces
     atom    1 type  2   force =     0.00000000    0.00000000    0.00000000
     atom    2 type  2   force =     0.00000000    0.00000000    0.00000000
     atom    3 type  1   force =    -0.05382547    0.05382547    0.00000000
     atom    4 type  1   force =     0.05382547    0.05382547    0.00000000
     atom    5 type  1   force =    -0.05382547   -0.05382547    0.00000000
     atom    6 type  1   force =     0.05382547   -0.05382547    0.00000000
     The ionic contribution  to forces
     atom    1 type  2   force =    -0.00000000   -0.00000000    0.00000000
     atom    2 type  2   force =     0.00000000    0.00000000   -0.00000000
     atom    3 type  1   force =     1.42937233   -1.42937233    0.00000000
     atom    4 type  1   force =    -1.42937233   -1.42937233   -0.00000000
     atom    5 type  1   force =     1.42937233    1.42937233   -0.00000000
     atom    6 type  1   force =    -1.42937233    1.42937233    0.00000000
     The local contribution  to forces
     atom    1 type  2   force =     0.00000000    0.00000000   -0.00000000
     atom    2 type  2   force =     0.00000000    0.00000000    0.00000000
     atom    3 type  1   force =    -1.37492021    1.37492021    0.00000000
     atom    4 type  1   force =     1.37492021    1.37492021   -0.00000000
     atom    5 type  1   force =    -1.37492021   -1.37492021    0.00000000
     atom    6 type  1   force =     1.37492021   -1.37492021    0.00000000
     The core correction contribution to forces
     atom    1 type  2   force =     0.00000000    0.00000000    0.00000000
     atom    2 type  2   force =     0.00000000    0.00000000    0.00000000
     atom    3 type  1   force =     0.00000000    0.00000000    0.00000000
     atom    4 type  1   force =     0.00000000    0.00000000    0.00000000
     atom    5 type  1   force =     0.00000000    0.00000000    0.00000000
     atom    6 type  1   force =     0.00000000    0.00000000    0.00000000
     The Hubbard contrib.    to forces
     atom    1 type  2   force =     0.00000000    0.00000000    0.00000000
     atom    2 type  2   force =     0.00000000    0.00000000    0.00000000
     atom    3 type  1   force =     0.00000000    0.00000000    0.00000000
     atom    4 type  1   force =     0.00000000    0.00000000    0.00000000
     atom    5 type  1   force =     0.00000000    0.00000000    0.00000000
     atom    6 type  1   force =     0.00000000    0.00000000    0.00000000
     The SCF correction term to forces
     atom    1 type  2   force =    -0.00000000   -0.00000000   -0.00000000
     atom    2 type  2   force =     0.00000000   -0.00000000   -0.00000000
     atom    3 type  1   force =    -0.00000055    0.00000055   -0.00000000
     atom    4 type  1   force =     0.00000055    0.00000055   -0.00000000
     atom    5 type  1   force =    -0.00000055   -0.00000055   -0.00000000
     atom    6 type  1   force =     0.00000055   -0.00000055   -0.00000000

     Total force =     0.001771     Total SCF correction =     0.000002


     Computing stress (Cartesian axis) and pressure

          total   stress  (Ry/bohr**3)                   (kbar)     P=      -20.64
  -0.00012170   0.00000000   0.00000000          -17.90        0.00        0.00
   0.00000000  -0.00012170   0.00000000            0.00      -17.90        0.00
   0.00000000   0.00000000  -0.00017752            0.00        0.00      -26.11

     kinetic stress (kbar)  48454.52      0.00      0.00
                                0.00  48454.52      0.00
                                0.00      0.00  47524.95

     local   stress (kbar) -12686.60      0.00     -0.00
                                0.00 -12686.60     -0.00
                               -0.00     -0.00 -44400.02

     nonloc. stress (kbar)  14527.82      0.00      0.00
                                0.00  14527.82      0.00
                                0.00      0.00  14741.11

     hartree stress (kbar)   9610.74      0.00      0.00
                                0.00   9610.74     -0.00
                                0.00     -0.00  21378.77

     exc-cor stress (kbar)  -7288.17      0.00      0.00
                                0.00  -7288.17      0.00
                                0.00      0.00  -7263.47

     corecor stress (kbar)      0.00      0.00      0.00
                                0.00      0.00      0.00
                                0.00      0.00      0.00

     ewald   stress (kbar) -52636.21     -0.00     -0.00
                               -0.00 -52636.21     -0.00
                               -0.00     -0.00 -32007.45

     hubbard stress (kbar)      0.00      0.00      0.00
                                0.00      0.00      0.00
                                0.00      0.00      0.00

     DFT-D   stress (kbar)      0.00      0.00      0.00
                                0.00      0.00      0.00
                                0.00      0.00      0.00

     XDM     stress (kbar)      0.00      0.00      0.00
                                0.00      0.00      0.00
                                0.00      0.00      0.00

     dft-nl  stress (kbar)      0.00      0.00      0.00
                                0.00      0.00      0.00
                                0.00      0.00      0.00

     TS-vdW  stress (kbar)      0.00      0.00      0.00
                                0.00      0.00      0.00
                                0.00      0.00      0.00


                                0.00      0.00      0.00
                                0.00      0.00      0.00


                                0.00      0.00      0.00


     Writing all to output data dir tmp/espresso.save/
 
     init_run     :     12.63s CPU      6.52s WALL (       1 calls)
     electrons    :    428.73s CPU    219.63s WALL (       1 calls)
     forces       :     21.28s CPU     10.91s WALL (       1 calls)
     stress       :     32.71s CPU     16.51s WALL (       1 calls)

     Called by init_run:
     wfcinit      :     12.56s CPU      6.46s WALL (       1 calls)
     wfcinit:atom :      0.04s CPU      0.02s WALL (     126 calls)
     wfcinit:wfcr :     12.21s CPU      6.27s WALL (     126 calls)
     potinit      :      0.02s CPU      0.01s WALL (       1 calls)
     hinit0       :      0.04s CPU      0.03s WALL (       1 calls)

     Called by electrons:
     c_bands      :    392.95s CPU    201.22s WALL (      10 calls)
     sum_band     :     35.60s CPU     18.27s WALL (      10 calls)
     v_of_rho     :      0.05s CPU      0.03s WALL (      11 calls)
     v_h          :      0.01s CPU      0.00s WALL (      11 calls)
     v_xc         :      0.04s CPU      0.02s WALL (      11 calls)
     mix_rho      :      0.04s CPU      0.02s WALL (      10 calls)

     Called by c_bands:
     init_us_2    :      1.14s CPU      0.61s WALL (    2898 calls)
     init_us_2:cp :      1.12s CPU      0.60s WALL (    2898 calls)
     cegterg      :    362.82s CPU    185.85s WALL (    1260 calls)

     Called by sum_band:
     sum_band:wei :      0.20s CPU      0.10s WALL (      10 calls)
     sum_band:loo :     35.37s CPU     18.16s WALL (      10 calls)
     sum_band:buf :      0.19s CPU      0.10s WALL (    1260 calls)
     sum_band:ini :      0.36s CPU      0.19s WALL (    1260 calls)

     Called by *egterg:
     cdiaghg      :     52.41s CPU     26.65s WALL (    4194 calls)
     cegterg:over :     22.56s CPU     11.50s WALL (    2934 calls)
     cegterg:upda :     17.75s CPU      9.03s WALL (    2934 calls)
     cegterg:last :     31.27s CPU     15.91s WALL (    2520 calls)
     cdiaghg:chol :      2.45s CPU      1.25s WALL (    4194 calls)
     cdiaghg:inve :      0.38s CPU      0.19s WALL (    4194 calls)
     cdiaghg:para :      5.46s CPU      2.79s WALL (    8388 calls)
     h_psi        :    241.57s CPU    124.22s WALL (    4320 calls)
     g_psi        :      0.35s CPU      0.18s WALL (    2934 calls)

     Called by h_psi:
     h_psi:calbec :     29.20s CPU     15.31s WALL (    4320 calls)
     vloc_psi     :    170.01s CPU     87.37s WALL (    4320 calls)
     add_vuspsi   :     41.81s CPU     21.27s WALL (    4320 calls)

     General routines
     calbec       :     38.94s CPU     20.35s WALL (    4950 calls)
     fft          :      0.06s CPU      0.03s WALL (     150 calls)
     ffts         :      0.01s CPU      0.01s WALL (      40 calls)
     fftw         :    192.41s CPU     98.88s WALL ( 1084192 calls)
 
     Parallel routines
 
     PWSCF        :   8m30.44s CPU   4m26.45s WALL

 
   This run was terminated on:  12:14:43  10Apr2022            

=------------------------------------------------------------------------------=
   JOB DONE.
=------------------------------------------------------------------------------=
