
     Program PWSCF v.7.0 starts on 10Apr2022 at 10:16:33 

     This program is part of the open-source Quantum ESPRESSO suite
     for quantum simulation of materials; please cite
         "P. Giannozzi et al., J. Phys.:Condens. Matter 21 395502 (2009);
         "P. Giannozzi et al., J. Phys.:Condens. Matter 29 465901 (2017);
         "P. Giannozzi et al., J. Chem. Phys. 152 154105 (2020);
          URL http://www.quantum-espresso.org", 
     in publications or presentations arising from this work. More details at
     http://www.quantum-espresso.org/quote

     Parallel version (MPI & OpenMP), running on      64 processor cores
     Number of MPI processes:                32
     Threads/MPI process:                     2

     MPI processes distributed on     1 nodes
     R & G space division:  proc/nbgrp/npool/nimage =      32
     230887 MiB available memory on the printing compute node when the environment starts
 
     Reading input from kpoints_10105.pwi
Warning: card &CELL ignored
Warning: card / ignored

     Current dimensions of program PWSCF are:
     Max number of different atomic species (ntypx) = 10
     Max number of k-points (npk) =  40000
     Max angular momentum in pseudopotentials (lmaxx) =  4

     Subspace diagonalization in iterative solution of the eigenvalue problem:
     one sub-group per band group will be used
     scalapack distributed-memory algorithm (size of sub-group:  5*  5 procs)

 
     Parallelization info
     --------------------
     sticks:   dense  smooth     PW     G-vecs:    dense   smooth      PW
     Min          58      58     17                 1342     1342     207
     Max          59      59     18                 1345     1345     210
     Sum        1885    1885    545                42999    42999    6675
 
     Using Slab Decomposition
 

     Title: 
     IrO2 Unit Cell                                                             


     bravais-lattice index     =            6
     lattice parameter (alat)  =       8.5888  a.u.
     unit-cell volume          =     444.6868 (a.u.)^3
     number of atoms/cell      =            6
     number of atomic types    =            2
     number of electrons       =        58.00
     number of Kohn-Sham states=           70
     kinetic-energy cutoff     =      80.0000  Ry
     charge density cutoff     =     320.0000  Ry
     scf convergence threshold =      1.0E-09
     mixing beta               =       0.7000
     number of iterations used =            8  plain     mixing
     Exchange-correlation= PBE
                           (   1   4   3   4   0   0   0)
     Non magnetic calculation with spin-orbit


     celldm(1)=   8.588800  celldm(2)=   0.000000  celldm(3)=   0.701870
     celldm(4)=   0.000000  celldm(5)=   0.000000  celldm(6)=   0.000000

     crystal axes: (cart. coord. in units of alat)
               a(1) = (   1.000000   0.000000   0.000000 )  
               a(2) = (   0.000000   1.000000   0.000000 )  
               a(3) = (   0.000000   0.000000   0.701870 )  

     reciprocal axes: (cart. coord. in units 2 pi/alat)
               b(1) = (  1.000000  0.000000  0.000000 )  
               b(2) = (  0.000000  1.000000  0.000000 )  
               b(3) = (  0.000000  0.000000  1.424765 )  


     PseudoPot. # 1 for O  read from file:
     ../../XX_PSEUDO/O_ONCV_PBE_fr.upf
     MD5 check sum: 59c925217d3b58c6d762355590b68b09
     Pseudo is Norm-conserving, Zval =  6.0
     Generated using ONCVPSP code by D. R. Hamann
     Using radial grid of  936 points,  6 beta functions with: 
                l(1) =   0
                l(2) =   0
                l(3) =   1
                l(4) =   1
                l(5) =   1
                l(6) =   1

     PseudoPot. # 2 for Ir read from file:
     ../../XX_PSEUDO/Ir_ONCV_PBE_fr.upf
     MD5 check sum: 924e909c4146afa09f62ee3401806954
     Pseudo is Norm-conserving, Zval = 17.0
     Generated using ONCVPSP code by D. R. Hamann
     Using radial grid of 1310 points, 14 beta functions with: 
                l(1) =   0
                l(2) =   0
                l(3) =   1
                l(4) =   1
                l(5) =   1
                l(6) =   1
                l(7) =   2
                l(8) =   2
                l(9) =   2
               l(10) =   2
               l(11) =   3
               l(12) =   3
               l(13) =   3
               l(14) =   3

     atomic species   valence    mass     pseudopotential
        O              6.00    15.99900     O ( 1.00)
        Ir            17.00   192.21700     Ir( 1.00)

     16 Sym. Ops., with inversion, found ( 8 have fractional translation)


                                    s                        frac. trans.

      isym =  1     identity                                     

 cryst.   s( 1) = (     1          0          0      )
                  (     0          1          0      )
                  (     0          0          1      )

 cart.    s( 1) = (  1.0000000  0.0000000  0.0000000 )
                  (  0.0000000  1.0000000  0.0000000 )
                  (  0.0000000  0.0000000  1.0000000 )


      isym =  2     180 deg rotation - cart. axis [0,0,1]        

 cryst.   s( 2) = (    -1          0          0      )
                  (     0         -1          0      )
                  (     0          0          1      )

 cart.    s( 2) = ( -1.0000000  0.0000000  0.0000000 )
                  (  0.0000000 -1.0000000  0.0000000 )
                  (  0.0000000  0.0000000  1.0000000 )


      isym =  3     180 deg rotation - cart. axis [0,1,0]        

 cryst.   s( 3) = (    -1          0          0      )    f =(  0.5000000 )
                  (     0          1          0      )       ( -0.5000000 )
                  (     0          0         -1      )       (  0.5000000 )

 cart.    s( 3) = ( -1.0000000  0.0000000  0.0000000 )    f =(  0.5000000 )
                  (  0.0000000  1.0000000  0.0000000 )       ( -0.5000000 )
                  (  0.0000000  0.0000000 -1.0000000 )       (  0.3509351 )


      isym =  4     180 deg rotation - cart. axis [1,0,0]        

 cryst.   s( 4) = (     1          0          0      )    f =( -0.5000000 )
                  (     0         -1          0      )       (  0.5000000 )
                  (     0          0         -1      )       (  0.5000000 )

 cart.    s( 4) = (  1.0000000  0.0000000  0.0000000 )    f =( -0.5000000 )
                  (  0.0000000 -1.0000000  0.0000000 )       (  0.5000000 )
                  (  0.0000000  0.0000000 -1.0000000 )       (  0.3509351 )


      isym =  5     180 deg rotation - cart. axis [1,1,0]        

 cryst.   s( 5) = (     0          1          0      )
                  (     1          0          0      )
                  (     0          0         -1      )

 cart.    s( 5) = (  0.0000000  1.0000000  0.0000000 )
                  (  1.0000000  0.0000000  0.0000000 )
                  (  0.0000000  0.0000000 -1.0000000 )


      isym =  6     180 deg rotation - cart. axis [1,-1,0]       

 cryst.   s( 6) = (     0         -1          0      )
                  (    -1          0          0      )
                  (     0          0         -1      )

 cart.    s( 6) = (  0.0000000 -1.0000000  0.0000000 )
                  ( -1.0000000  0.0000000  0.0000000 )
                  (  0.0000000  0.0000000 -1.0000000 )


      isym =  7      90 deg rotation - cart. axis [0,0,-1]       

 cryst.   s( 7) = (     0         -1          0      )    f =( -0.5000000 )
                  (     1          0          0      )       (  0.5000000 )
                  (     0          0          1      )       ( -0.5000000 )

 cart.    s( 7) = (  0.0000000  1.0000000  0.0000000 )    f =( -0.5000000 )
                  ( -1.0000000  0.0000000  0.0000000 )       (  0.5000000 )
                  (  0.0000000  0.0000000  1.0000000 )       ( -0.3509351 )


      isym =  8      90 deg rotation - cart. axis [0,0,1]        

 cryst.   s( 8) = (     0          1          0      )    f =(  0.5000000 )
                  (    -1          0          0      )       ( -0.5000000 )
                  (     0          0          1      )       ( -0.5000000 )

 cart.    s( 8) = (  0.0000000 -1.0000000  0.0000000 )    f =(  0.5000000 )
                  (  1.0000000  0.0000000  0.0000000 )       ( -0.5000000 )
                  (  0.0000000  0.0000000  1.0000000 )       ( -0.3509351 )


      isym =  9     inversion                                    

 cryst.   s( 9) = (    -1          0          0      )
                  (     0         -1          0      )
                  (     0          0         -1      )

 cart.    s( 9) = ( -1.0000000  0.0000000  0.0000000 )
                  (  0.0000000 -1.0000000  0.0000000 )
                  (  0.0000000  0.0000000 -1.0000000 )


      isym = 10     inv. 180 deg rotation - cart. axis [0,0,1]   

 cryst.   s(10) = (     1          0          0      )
                  (     0          1          0      )
                  (     0          0         -1      )

 cart.    s(10) = (  1.0000000  0.0000000  0.0000000 )
                  (  0.0000000  1.0000000  0.0000000 )
                  (  0.0000000  0.0000000 -1.0000000 )


      isym = 11     inv. 180 deg rotation - cart. axis [0,1,0]   

 cryst.   s(11) = (     1          0          0      )    f =( -0.5000000 )
                  (     0         -1          0      )       (  0.5000000 )
                  (     0          0          1      )       ( -0.5000000 )

 cart.    s(11) = (  1.0000000  0.0000000  0.0000000 )    f =( -0.5000000 )
                  (  0.0000000 -1.0000000  0.0000000 )       (  0.5000000 )
                  (  0.0000000  0.0000000  1.0000000 )       ( -0.3509351 )


      isym = 12     inv. 180 deg rotation - cart. axis [1,0,0]   

 cryst.   s(12) = (    -1          0          0      )    f =(  0.5000000 )
                  (     0          1          0      )       ( -0.5000000 )
                  (     0          0          1      )       ( -0.5000000 )

 cart.    s(12) = ( -1.0000000  0.0000000  0.0000000 )    f =(  0.5000000 )
                  (  0.0000000  1.0000000  0.0000000 )       ( -0.5000000 )
                  (  0.0000000  0.0000000  1.0000000 )       ( -0.3509351 )


      isym = 13     inv. 180 deg rotation - cart. axis [1,1,0]   

 cryst.   s(13) = (     0         -1          0      )
                  (    -1          0          0      )
                  (     0          0          1      )

 cart.    s(13) = (  0.0000000 -1.0000000  0.0000000 )
                  ( -1.0000000  0.0000000  0.0000000 )
                  (  0.0000000  0.0000000  1.0000000 )


      isym = 14     inv. 180 deg rotation - cart. axis [1,-1,0]  

 cryst.   s(14) = (     0          1          0      )
                  (     1          0          0      )
                  (     0          0          1      )

 cart.    s(14) = (  0.0000000  1.0000000  0.0000000 )
                  (  1.0000000  0.0000000  0.0000000 )
                  (  0.0000000  0.0000000  1.0000000 )


      isym = 15     inv.  90 deg rotation - cart. axis [0,0,-1]  

 cryst.   s(15) = (     0          1          0      )    f =(  0.5000000 )
                  (    -1          0          0      )       ( -0.5000000 )
                  (     0          0         -1      )       (  0.5000000 )

 cart.    s(15) = (  0.0000000 -1.0000000  0.0000000 )    f =(  0.5000000 )
                  (  1.0000000  0.0000000  0.0000000 )       ( -0.5000000 )
                  (  0.0000000  0.0000000 -1.0000000 )       (  0.3509351 )


      isym = 16     inv.  90 deg rotation - cart. axis [0,0,1]   

 cryst.   s(16) = (     0         -1          0      )    f =( -0.5000000 )
                  (     1          0          0      )       (  0.5000000 )
                  (     0          0         -1      )       (  0.5000000 )

 cart.    s(16) = (  0.0000000  1.0000000  0.0000000 )    f =( -0.5000000 )
                  ( -1.0000000  0.0000000  0.0000000 )       (  0.5000000 )
                  (  0.0000000  0.0000000 -1.0000000 )       (  0.3509351 )


     double point group D_4h(4/mmm)
     there are 14 classes and  4 irreducible representations
     the character table:

       E     -E    2C4   -2C4   C2    2C2' 2C2'' i     -i    2S4   -2S4   s_h 
                               -C2   -2C2' -2C2'                         -s_h 
G_6+   2.00 -2.00  1.41 -1.41  0.00  0.00  0.00  2.00 -2.00  1.41 -1.41  0.00
G_7+   2.00 -2.00 -1.41  1.41  0.00  0.00  0.00  2.00 -2.00 -1.41  1.41  0.00
G_6-   2.00 -2.00  1.41 -1.41  0.00  0.00  0.00 -2.00  2.00 -1.41  1.41  0.00
G_7-   2.00 -2.00 -1.41  1.41  0.00  0.00  0.00 -2.00  2.00  1.41 -1.41  0.00

        2s_v  2s_d
       -2s_v -2s_d
G_6+   0.00  0.00
G_7+   0.00  0.00
G_6-   0.00  0.00
G_7-   0.00  0.00

     the symmetry operations in each class and the name of the first element:

     E             1
          identity                                               
     -E           -1
          identity E                                             
     2C4           7    8
           90 deg rotation - cart. axis [0,0,-1]                 
     -2C4         -7   -8
           90 deg rotation - cart. axis [0,0,-1] E               
      C2  -C2      2   -2
          180 deg rotation - cart. axis [0,0,1]                  
      2C2'-2C2'    3   -3    4   -4
          180 deg rotation - cart. axis [0,1,0]                  
     2C2''-2C2'    5   -5   -6    6
          180 deg rotation - cart. axis [1,1,0]                  
     i             9
          inversion                                              
     -i           -9
          inversion E                                            
     2S4          15   16
          inv.  90 deg rotation - cart. axis [0,0,-1]            
     -2S4        -15  -16
          inv.  90 deg rotation - cart. axis [0,0,-1] E          
      s_h -s_h    10  -10
          inv. 180 deg rotation - cart. axis [0,0,1]             
      2s_v-2s_v   11  -11   12  -12
          inv. 180 deg rotation - cart. axis [0,1,0]             
      2s_d-2s_d   13  -13  -14   14
          inv. 180 deg rotation - cart. axis [1,1,0]             

   Cartesian axes

     site n.     atom                  positions (alat units)
         1           Ir  tau(   1) = (   0.0000000   0.0000000   0.0000000  )
         2           Ir  tau(   2) = (   0.5000000   0.5000000   0.3509351  )
         3           O   tau(   3) = (   0.1916000   0.8084000   0.3509351  )
         4           O   tau(   4) = (   0.3084000   0.3084000   0.0000000  )
         5           O   tau(   5) = (   0.6916000   0.6916000   0.0000000  )
         6           O   tau(   6) = (   0.8084000   0.1916000   0.3509351  )

   Crystallographic axes

     site n.     atom                  positions (cryst. coord.)
         1           Ir  tau(   1) = (  0.0000000  0.0000000  0.0000000  )
         2           Ir  tau(   2) = (  0.5000000  0.5000000  0.5000000  )
         3           O   tau(   3) = (  0.1916000  0.8084000  0.5000000  )
         4           O   tau(   4) = (  0.3084000  0.3084000  0.0000000  )
         5           O   tau(   5) = (  0.6916000  0.6916000  0.0000000  )
         6           O   tau(   6) = (  0.8084000  0.1916000  0.5000000  )

     number of k points=    63  Methfessel-Paxton smearing, width (Ry)=  0.0050
                       cart. coord. in units 2pi/alat
        k(    1) = (   0.0000000   0.0000000   0.0000000), wk =   0.0020000
        k(    2) = (   0.0000000   0.0000000   0.2849530), wk =   0.0040000
        k(    3) = (   0.0000000   0.0000000   0.5699060), wk =   0.0040000
        k(    4) = (   0.0000000   0.1000000   0.0000000), wk =   0.0080000
        k(    5) = (   0.0000000   0.1000000   0.2849530), wk =   0.0160000
        k(    6) = (   0.0000000   0.1000000   0.5699060), wk =   0.0160000
        k(    7) = (   0.0000000   0.2000000   0.0000000), wk =   0.0080000
        k(    8) = (   0.0000000   0.2000000   0.2849530), wk =   0.0160000
        k(    9) = (   0.0000000   0.2000000   0.5699060), wk =   0.0160000
        k(   10) = (   0.0000000   0.3000000   0.0000000), wk =   0.0080000
        k(   11) = (   0.0000000   0.3000000   0.2849530), wk =   0.0160000
        k(   12) = (   0.0000000   0.3000000   0.5699060), wk =   0.0160000
        k(   13) = (   0.0000000   0.4000000   0.0000000), wk =   0.0080000
        k(   14) = (   0.0000000   0.4000000   0.2849530), wk =   0.0160000
        k(   15) = (   0.0000000   0.4000000   0.5699060), wk =   0.0160000
        k(   16) = (   0.0000000  -0.5000000   0.0000000), wk =   0.0040000
        k(   17) = (   0.0000000  -0.5000000   0.2849530), wk =   0.0080000
        k(   18) = (   0.0000000  -0.5000000   0.5699060), wk =   0.0080000
        k(   19) = (   0.1000000   0.1000000   0.0000000), wk =   0.0080000
        k(   20) = (   0.1000000   0.1000000   0.2849530), wk =   0.0160000
        k(   21) = (   0.1000000   0.1000000   0.5699060), wk =   0.0160000
        k(   22) = (   0.1000000   0.2000000   0.0000000), wk =   0.0160000
        k(   23) = (   0.1000000   0.2000000   0.2849530), wk =   0.0320000
        k(   24) = (   0.1000000   0.2000000   0.5699060), wk =   0.0320000
        k(   25) = (   0.1000000   0.3000000   0.0000000), wk =   0.0160000
        k(   26) = (   0.1000000   0.3000000   0.2849530), wk =   0.0320000
        k(   27) = (   0.1000000   0.3000000   0.5699060), wk =   0.0320000
        k(   28) = (   0.1000000   0.4000000   0.0000000), wk =   0.0160000
        k(   29) = (   0.1000000   0.4000000   0.2849530), wk =   0.0320000
        k(   30) = (   0.1000000   0.4000000   0.5699060), wk =   0.0320000
        k(   31) = (   0.1000000  -0.5000000   0.0000000), wk =   0.0080000
        k(   32) = (   0.1000000  -0.5000000   0.2849530), wk =   0.0160000
        k(   33) = (   0.1000000  -0.5000000   0.5699060), wk =   0.0160000
        k(   34) = (   0.2000000   0.2000000   0.0000000), wk =   0.0080000
        k(   35) = (   0.2000000   0.2000000   0.2849530), wk =   0.0160000
        k(   36) = (   0.2000000   0.2000000   0.5699060), wk =   0.0160000
        k(   37) = (   0.2000000   0.3000000   0.0000000), wk =   0.0160000
        k(   38) = (   0.2000000   0.3000000   0.2849530), wk =   0.0320000
        k(   39) = (   0.2000000   0.3000000   0.5699060), wk =   0.0320000
        k(   40) = (   0.2000000   0.4000000   0.0000000), wk =   0.0160000
        k(   41) = (   0.2000000   0.4000000   0.2849530), wk =   0.0320000
        k(   42) = (   0.2000000   0.4000000   0.5699060), wk =   0.0320000
        k(   43) = (   0.2000000  -0.5000000   0.0000000), wk =   0.0080000
        k(   44) = (   0.2000000  -0.5000000   0.2849530), wk =   0.0160000
        k(   45) = (   0.2000000  -0.5000000   0.5699060), wk =   0.0160000
        k(   46) = (   0.3000000   0.3000000   0.0000000), wk =   0.0080000
        k(   47) = (   0.3000000   0.3000000   0.2849530), wk =   0.0160000
        k(   48) = (   0.3000000   0.3000000   0.5699060), wk =   0.0160000
        k(   49) = (   0.3000000   0.4000000   0.0000000), wk =   0.0160000
        k(   50) = (   0.3000000   0.4000000   0.2849530), wk =   0.0320000
        k(   51) = (   0.3000000   0.4000000   0.5699060), wk =   0.0320000
        k(   52) = (   0.3000000  -0.5000000   0.0000000), wk =   0.0080000
        k(   53) = (   0.3000000  -0.5000000   0.2849530), wk =   0.0160000
        k(   54) = (   0.3000000  -0.5000000   0.5699060), wk =   0.0160000
        k(   55) = (   0.4000000   0.4000000   0.0000000), wk =   0.0080000
        k(   56) = (   0.4000000   0.4000000   0.2849530), wk =   0.0160000
        k(   57) = (   0.4000000   0.4000000   0.5699060), wk =   0.0160000
        k(   58) = (   0.4000000  -0.5000000   0.0000000), wk =   0.0080000
        k(   59) = (   0.4000000  -0.5000000   0.2849530), wk =   0.0160000
        k(   60) = (   0.4000000  -0.5000000   0.5699060), wk =   0.0160000
        k(   61) = (  -0.5000000  -0.5000000   0.0000000), wk =   0.0020000
        k(   62) = (  -0.5000000  -0.5000000   0.2849530), wk =   0.0040000
        k(   63) = (  -0.5000000  -0.5000000   0.5699060), wk =   0.0040000

                       cryst. coord.
        k(    1) = (   0.0000000   0.0000000   0.0000000), wk =   0.0020000
        k(    2) = (   0.0000000   0.0000000   0.2000000), wk =   0.0040000
        k(    3) = (   0.0000000   0.0000000   0.4000000), wk =   0.0040000
        k(    4) = (   0.0000000   0.1000000   0.0000000), wk =   0.0080000
        k(    5) = (   0.0000000   0.1000000   0.2000000), wk =   0.0160000
        k(    6) = (   0.0000000   0.1000000   0.4000000), wk =   0.0160000
        k(    7) = (   0.0000000   0.2000000   0.0000000), wk =   0.0080000
        k(    8) = (   0.0000000   0.2000000   0.2000000), wk =   0.0160000
        k(    9) = (   0.0000000   0.2000000   0.4000000), wk =   0.0160000
        k(   10) = (   0.0000000   0.3000000   0.0000000), wk =   0.0080000
        k(   11) = (   0.0000000   0.3000000   0.2000000), wk =   0.0160000
        k(   12) = (   0.0000000   0.3000000   0.4000000), wk =   0.0160000
        k(   13) = (   0.0000000   0.4000000   0.0000000), wk =   0.0080000
        k(   14) = (   0.0000000   0.4000000   0.2000000), wk =   0.0160000
        k(   15) = (   0.0000000   0.4000000   0.4000000), wk =   0.0160000
        k(   16) = (   0.0000000  -0.5000000   0.0000000), wk =   0.0040000
        k(   17) = (   0.0000000  -0.5000000   0.2000000), wk =   0.0080000
        k(   18) = (   0.0000000  -0.5000000   0.4000000), wk =   0.0080000
        k(   19) = (   0.1000000   0.1000000   0.0000000), wk =   0.0080000
        k(   20) = (   0.1000000   0.1000000   0.2000000), wk =   0.0160000
        k(   21) = (   0.1000000   0.1000000   0.4000000), wk =   0.0160000
        k(   22) = (   0.1000000   0.2000000   0.0000000), wk =   0.0160000
        k(   23) = (   0.1000000   0.2000000   0.2000000), wk =   0.0320000
        k(   24) = (   0.1000000   0.2000000   0.4000000), wk =   0.0320000
        k(   25) = (   0.1000000   0.3000000   0.0000000), wk =   0.0160000
        k(   26) = (   0.1000000   0.3000000   0.2000000), wk =   0.0320000
        k(   27) = (   0.1000000   0.3000000   0.4000000), wk =   0.0320000
        k(   28) = (   0.1000000   0.4000000   0.0000000), wk =   0.0160000
        k(   29) = (   0.1000000   0.4000000   0.2000000), wk =   0.0320000
        k(   30) = (   0.1000000   0.4000000   0.4000000), wk =   0.0320000
        k(   31) = (   0.1000000  -0.5000000   0.0000000), wk =   0.0080000
        k(   32) = (   0.1000000  -0.5000000   0.2000000), wk =   0.0160000
        k(   33) = (   0.1000000  -0.5000000   0.4000000), wk =   0.0160000
        k(   34) = (   0.2000000   0.2000000   0.0000000), wk =   0.0080000
        k(   35) = (   0.2000000   0.2000000   0.2000000), wk =   0.0160000
        k(   36) = (   0.2000000   0.2000000   0.4000000), wk =   0.0160000
        k(   37) = (   0.2000000   0.3000000   0.0000000), wk =   0.0160000
        k(   38) = (   0.2000000   0.3000000   0.2000000), wk =   0.0320000
        k(   39) = (   0.2000000   0.3000000   0.4000000), wk =   0.0320000
        k(   40) = (   0.2000000   0.4000000   0.0000000), wk =   0.0160000
        k(   41) = (   0.2000000   0.4000000   0.2000000), wk =   0.0320000
        k(   42) = (   0.2000000   0.4000000   0.4000000), wk =   0.0320000
        k(   43) = (   0.2000000  -0.5000000   0.0000000), wk =   0.0080000
        k(   44) = (   0.2000000  -0.5000000   0.2000000), wk =   0.0160000
        k(   45) = (   0.2000000  -0.5000000   0.4000000), wk =   0.0160000
        k(   46) = (   0.3000000   0.3000000   0.0000000), wk =   0.0080000
        k(   47) = (   0.3000000   0.3000000   0.2000000), wk =   0.0160000
        k(   48) = (   0.3000000   0.3000000   0.4000000), wk =   0.0160000
        k(   49) = (   0.3000000   0.4000000   0.0000000), wk =   0.0160000
        k(   50) = (   0.3000000   0.4000000   0.2000000), wk =   0.0320000
        k(   51) = (   0.3000000   0.4000000   0.4000000), wk =   0.0320000
        k(   52) = (   0.3000000  -0.5000000   0.0000000), wk =   0.0080000
        k(   53) = (   0.3000000  -0.5000000   0.2000000), wk =   0.0160000
        k(   54) = (   0.3000000  -0.5000000   0.4000000), wk =   0.0160000
        k(   55) = (   0.4000000   0.4000000   0.0000000), wk =   0.0080000
        k(   56) = (   0.4000000   0.4000000   0.2000000), wk =   0.0160000
        k(   57) = (   0.4000000   0.4000000   0.4000000), wk =   0.0160000
        k(   58) = (   0.4000000  -0.5000000   0.0000000), wk =   0.0080000
        k(   59) = (   0.4000000  -0.5000000   0.2000000), wk =   0.0160000
        k(   60) = (   0.4000000  -0.5000000   0.4000000), wk =   0.0160000
        k(   61) = (  -0.5000000  -0.5000000   0.0000000), wk =   0.0020000
        k(   62) = (  -0.5000000  -0.5000000   0.2000000), wk =   0.0040000
        k(   63) = (  -0.5000000  -0.5000000   0.4000000), wk =   0.0040000

     Dense  grid:    42999 G-vectors     FFT dimensions: (  50,  50,  36)

     Dynamical RAM for                 wfc:       0.36 MB

     Dynamical RAM for     wfc (w. buffer):      22.83 MB

     Dynamical RAM for           str. fact:       0.04 MB

     Dynamical RAM for           local pot:       0.00 MB

     Dynamical RAM for          nlocal pot:       0.46 MB

     Dynamical RAM for                qrad:      20.10 MB

     Dynamical RAM for          rho,v,vnew:       0.70 MB

     Dynamical RAM for               rhoin:       0.23 MB

     Dynamical RAM for            rho*nmix:       1.31 MB

     Dynamical RAM for           G-vectors:       0.09 MB

     Dynamical RAM for          h,s,v(r/c):       0.04 MB

     Dynamical RAM for          <psi|beta>:       0.38 MB

     Dynamical RAM for                 psi:       0.71 MB

     Dynamical RAM for                hpsi:       0.71 MB

     Dynamical RAM for      wfcinit/wfcrot:       0.67 MB

     Estimated static dynamical RAM per process >      44.82 MB

     Estimated max dynamical RAM per process >      47.98 MB

     Estimated total dynamical RAM >       1.50 GB

     Initial potential from superposition of free atoms

     starting charge      57.9997, renormalised to      58.0000
     Starting wfcs are   72 randomized atomic wfcs

     total cpu time spent up to now is        3.4 secs

     Self-consistent Calculation

     iteration #  1     ecut=    80.00 Ry     beta= 0.70
     Davidson diagonalization with overlap

---- Real-time Memory Report at c_bands before calling an iterative solver
            98 MiB given to the printing process from OS
             0 MiB allocation reported by mallinfo(arena+hblkhd)
        228839 MiB available memory on the node where the printing process lives
------------------
     ethr =  1.00E-02,  avg # of iterations =  2.8

     total cpu time spent up to now is       14.4 secs

     total energy              =    -552.42627029 Ry
     estimated scf accuracy    <       1.21492978 Ry

     iteration #  2     ecut=    80.00 Ry     beta= 0.70
     Davidson diagonalization with overlap

---- Real-time Memory Report at c_bands before calling an iterative solver
           107 MiB given to the printing process from OS
             0 MiB allocation reported by mallinfo(arena+hblkhd)
        228657 MiB available memory on the node where the printing process lives
------------------
     ethr =  2.09E-03,  avg # of iterations =  2.0

     total cpu time spent up to now is       26.2 secs

     total energy              =    -552.27478449 Ry
     estimated scf accuracy    <       4.30946228 Ry

     iteration #  3     ecut=    80.00 Ry     beta= 0.70
     Davidson diagonalization with overlap

---- Real-time Memory Report at c_bands before calling an iterative solver
           108 MiB given to the printing process from OS
             0 MiB allocation reported by mallinfo(arena+hblkhd)
        228628 MiB available memory on the node where the printing process lives
------------------
     ethr =  2.09E-03,  avg # of iterations =  2.0

     total cpu time spent up to now is       37.3 secs

     total energy              =    -553.07579576 Ry
     estimated scf accuracy    <       0.03424903 Ry

     iteration #  4     ecut=    80.00 Ry     beta= 0.70
     Davidson diagonalization with overlap

---- Real-time Memory Report at c_bands before calling an iterative solver
           108 MiB given to the printing process from OS
             0 MiB allocation reported by mallinfo(arena+hblkhd)
        228610 MiB available memory on the node where the printing process lives
------------------
     ethr =  5.91E-05,  avg # of iterations =  2.5

     total cpu time spent up to now is       48.5 secs

     total energy              =    -553.07938727 Ry
     estimated scf accuracy    <       0.00501246 Ry

     iteration #  5     ecut=    80.00 Ry     beta= 0.70
     Davidson diagonalization with overlap

---- Real-time Memory Report at c_bands before calling an iterative solver
           109 MiB given to the printing process from OS
             0 MiB allocation reported by mallinfo(arena+hblkhd)
        228606 MiB available memory on the node where the printing process lives
------------------
     ethr =  8.64E-06,  avg # of iterations =  2.3

     total cpu time spent up to now is       58.4 secs

     total energy              =    -553.08026383 Ry
     estimated scf accuracy    <       0.00026051 Ry

     iteration #  6     ecut=    80.00 Ry     beta= 0.70
     Davidson diagonalization with overlap

---- Real-time Memory Report at c_bands before calling an iterative solver
           109 MiB given to the printing process from OS
             0 MiB allocation reported by mallinfo(arena+hblkhd)
        228597 MiB available memory on the node where the printing process lives
------------------
     ethr =  4.49E-07,  avg # of iterations =  2.5

     total cpu time spent up to now is       68.5 secs

     total energy              =    -553.08029823 Ry
     estimated scf accuracy    <       0.00000919 Ry

     iteration #  7     ecut=    80.00 Ry     beta= 0.70
     Davidson diagonalization with overlap

---- Real-time Memory Report at c_bands before calling an iterative solver
           110 MiB given to the printing process from OS
             0 MiB allocation reported by mallinfo(arena+hblkhd)
        228584 MiB available memory on the node where the printing process lives
------------------
     ethr =  1.58E-08,  avg # of iterations =  2.0

     total cpu time spent up to now is       80.2 secs

     total energy              =    -553.08030129 Ry
     estimated scf accuracy    <       0.00000050 Ry

     iteration #  8     ecut=    80.00 Ry     beta= 0.70
     Davidson diagonalization with overlap

---- Real-time Memory Report at c_bands before calling an iterative solver
           112 MiB given to the printing process from OS
             0 MiB allocation reported by mallinfo(arena+hblkhd)
        228515 MiB available memory on the node where the printing process lives
------------------
     ethr =  8.59E-10,  avg # of iterations =  2.1

     total cpu time spent up to now is       90.2 secs

     total energy              =    -553.08030133 Ry
     estimated scf accuracy    <       0.00000006 Ry

     iteration #  9     ecut=    80.00 Ry     beta= 0.70
     Davidson diagonalization with overlap

---- Real-time Memory Report at c_bands before calling an iterative solver
           115 MiB given to the printing process from OS
             0 MiB allocation reported by mallinfo(arena+hblkhd)
        228505 MiB available memory on the node where the printing process lives
------------------
     ethr =  1.06E-10,  avg # of iterations =  2.0

     total cpu time spent up to now is      101.2 secs

     total energy              =    -553.08030135 Ry
     estimated scf accuracy    <          3.5E-09 Ry

     iteration # 10     ecut=    80.00 Ry     beta= 0.70
     Davidson diagonalization with overlap

---- Real-time Memory Report at c_bands before calling an iterative solver
           115 MiB given to the printing process from OS
             0 MiB allocation reported by mallinfo(arena+hblkhd)
        228501 MiB available memory on the node where the printing process lives
------------------
     ethr =  6.01E-12,  avg # of iterations =  2.1

     total cpu time spent up to now is      112.4 secs

     End of self-consistent calculation

          k = 0.0000 0.0000 0.0000 (  5409 PWs)   bands (ev):

   -79.3837 -79.3837 -79.3824 -79.3824 -46.2261 -46.2261 -46.2154 -46.2154
   -32.7652 -32.7652 -32.7554 -32.7554 -32.6215 -32.6215 -32.6062 -32.6062
    -7.0753  -7.0753  -5.9196  -5.9196  -5.0045  -5.0045  -4.8031  -4.8031
     4.2680   4.2680   4.5149   4.5149   6.0325   6.0325   6.1438   6.1438
     6.2588   6.2588   8.7849   8.7849   8.9370   8.9370   9.1946   9.1946
    10.3319  10.3319  10.9871  10.9871  10.9899  10.9899  11.0296  11.0296
    11.2057  11.2057  11.3877  11.3877  11.6455  11.6455  11.6720  11.6720
    12.0589  12.0589  14.6456  14.6456  15.0733  15.0733  17.6879  17.6879
    17.8965  17.8965  18.0450  18.0450  19.4467  19.4467

     occupation numbers 
     1.0000   1.0000   1.0000   1.0000   1.0000   1.0000   1.0000   1.0000
     1.0000   1.0000   1.0000   1.0000   1.0000   1.0000   1.0000   1.0000
     1.0000   1.0000   1.0000   1.0000   1.0000   1.0000   1.0000   1.0000
     1.0000   1.0000   1.0000   1.0000   1.0000   1.0000   1.0000   1.0000
     1.0000   1.0000   1.0000   1.0000   1.0000   1.0000   1.0000   1.0000
     1.0000   1.0000   1.0000   1.0000   1.0000   1.0000   1.0000   1.0000
     1.0000   1.0000   1.0000   1.0000   1.0000   1.0000   1.0000   1.0000
     1.0000   1.0000  -0.0000  -0.0000  -0.0000  -0.0000  -0.0000  -0.0000
    -0.0000  -0.0000  -0.0000  -0.0000  -0.0000  -0.0000

          k = 0.0000 0.0000 0.2850 (  5373 PWs)   bands (ev):

   -79.3828 -79.3828 -79.3817 -79.3817 -46.2289 -46.2289 -46.2203 -46.2203
   -32.7758 -32.7758 -32.7756 -32.7756 -32.6334 -32.6334 -32.6128 -32.6128
    -6.7307  -6.7307  -5.7551  -5.7551  -5.1564  -5.1564  -5.0095  -5.0095
     4.7777   4.7777   4.8735   4.8735   6.3275   6.3275   6.3571   6.3571
     6.6436   6.6436   7.6451   7.6451   8.7329   8.7329   9.3121   9.3121
     9.3266   9.3266   9.6813   9.6813   9.7463   9.7463  10.9213  10.9213
    11.7540  11.7540  11.8123  11.8123  12.0437  12.0437  12.8729  12.8729
    12.8990  12.8990  14.7088  14.7088  15.3749  15.3749  16.9197  16.9197
    17.2194  17.2194  18.3298  18.3298  19.3511  19.3511

     occupation numbers 
     1.0000   1.0000   1.0000   1.0000   1.0000   1.0000   1.0000   1.0000
     1.0000   1.0000   1.0000   1.0000   1.0000   1.0000   1.0000   1.0000
     1.0000   1.0000   1.0000   1.0000   1.0000   1.0000   1.0000   1.0000
     1.0000   1.0000   1.0000   1.0000   1.0000   1.0000   1.0000   1.0000
     1.0000   1.0000   1.0000   1.0000   1.0000   1.0000   1.0000   1.0000
     1.0000   1.0000   1.0000   1.0000   1.0000   1.0000   1.0000   1.0000
     1.0000   1.0000   1.0000   1.0000   1.0000   1.0000   1.0000   1.0000
     1.0000   1.0000  -0.0000  -0.0000  -0.0000  -0.0000  -0.0000  -0.0000
    -0.0000  -0.0000  -0.0000  -0.0000  -0.0000  -0.0000

          k = 0.0000 0.0000 0.5699 (  5405 PWs)   bands (ev):

   -79.3811 -79.3811 -79.3807 -79.3807 -46.2325 -46.2325 -46.2292 -46.2292
   -32.8099 -32.8099 -32.8061 -32.8061 -32.6360 -32.6360 -32.6243 -32.6243
    -6.0091  -6.0091  -5.6208  -5.6208  -5.3694  -5.3694  -5.3371  -5.3371
     5.5249   5.5249   5.7820   5.7820   6.4193   6.4193   6.9167   6.9167
     6.9576   6.9576   7.2045   7.2045   7.7608   7.7608   8.3817   8.3817
     8.4953   8.4953   9.3770   9.3770   9.8098   9.8098   9.9765   9.9765
    11.7943  11.7943  12.0984  12.0984  12.5783  12.5783  13.5406  13.5406
    13.9151  13.9151  14.0916  14.0916  16.0822  16.0822  16.1801  16.1801
    16.5283  16.5283  16.9504  16.9504  21.7322  21.7322

     occupation numbers 
     1.0000   1.0000   1.0000   1.0000   1.0000   1.0000   1.0000   1.0000
     1.0000   1.0000   1.0000   1.0000   1.0000   1.0000   1.0000   1.0000
     1.0000   1.0000   1.0000   1.0000   1.0000   1.0000   1.0000   1.0000
     1.0000   1.0000   1.0000   1.0000   1.0000   1.0000   1.0000   1.0000
     1.0000   1.0000   1.0000   1.0000   1.0000   1.0000   1.0000   1.0000
     1.0000   1.0000   1.0000   1.0000   1.0000   1.0000   1.0000   1.0000
     1.0000   1.0000   1.0000   1.0000   1.0000   1.0000   1.0000   1.0000
     0.0625   0.0625  -0.0000  -0.0000  -0.0000  -0.0000  -0.0000  -0.0000
    -0.0000  -0.0000  -0.0000  -0.0000  -0.0000  -0.0000

          k = 0.0000 0.1000 0.0000 (  5371 PWs)   bands (ev):

   -79.3837 -79.3837 -79.3824 -79.3824 -46.2258 -46.2258 -46.2156 -46.2156
   -32.7647 -32.7647 -32.7554 -32.7554 -32.6214 -32.6214 -32.6069 -32.6069
    -7.0374  -7.0374  -5.9144  -5.9144  -5.0372  -5.0372  -4.8424  -4.8424
     4.3652   4.3652   4.5879   4.5879   6.0476   6.0476   6.1527   6.1527
     6.3210   6.3210   8.7381   8.7381   8.7894   8.7894   9.0510   9.0510
    10.1087  10.1087  10.6259  10.6259  10.8044  10.8044  11.2737  11.2737
    11.3598  11.3598  11.5538  11.5538  11.6569  11.6569  11.7883  11.7883
    12.1970  12.1970  14.8088  14.8088  15.0014  15.0014  17.6510  17.6510
    17.9903  17.9903  18.0720  18.0720  19.3561  19.3561

     occupation numbers 
     1.0000   1.0000   1.0000   1.0000   1.0000   1.0000   1.0000   1.0000
     1.0000   1.0000   1.0000   1.0000   1.0000   1.0000   1.0000   1.0000
     1.0000   1.0000   1.0000   1.0000   1.0000   1.0000   1.0000   1.0000
     1.0000   1.0000   1.0000   1.0000   1.0000   1.0000   1.0000   1.0000
     1.0000   1.0000   1.0000   1.0000   1.0000   1.0000   1.0000   1.0000
     1.0000   1.0000   1.0000   1.0000   1.0000   1.0000   1.0000   1.0000
     1.0000   1.0000   1.0000   1.0000   1.0000   1.0000   1.0000   1.0000
     1.0000   1.0000  -0.0000  -0.0000  -0.0000  -0.0000  -0.0000  -0.0000
    -0.0000  -0.0000  -0.0000  -0.0000  -0.0000  -0.0000

          k = 0.0000 0.1000 0.2850 (  5375 PWs)   bands (ev):

   -79.3827 -79.3827 -79.3817 -79.3817 -46.2287 -46.2287 -46.2205 -46.2205
   -32.7786 -32.7786 -32.7725 -32.7725 -32.6334 -32.6334 -32.6133 -32.6133
    -6.6975  -6.6975  -5.7459  -5.7459  -5.1852  -5.1852  -5.0412  -5.0412
     4.8478   4.8478   4.9441   4.9441   6.3119   6.3119   6.3544   6.3544
     6.7521   6.7521   7.5883   7.5883   8.5204   8.5204   9.1581   9.1581
     9.4256   9.4256   9.6304   9.6304   9.7083   9.7083  11.0102  11.0102
    11.6250  11.6250  11.9373  11.9373  12.1370  12.1370  12.8272  12.8272
    12.9563  12.9563  14.6501  14.6501  15.5005  15.5005  16.8225  16.8225
    17.1397  17.1397  18.4526  18.4526  19.4158  19.4158

     occupation numbers 
     1.0000   1.0000   1.0000   1.0000   1.0000   1.0000   1.0000   1.0000
     1.0000   1.0000   1.0000   1.0000   1.0000   1.0000   1.0000   1.0000
     1.0000   1.0000   1.0000   1.0000   1.0000   1.0000   1.0000   1.0000
     1.0000   1.0000   1.0000   1.0000   1.0000   1.0000   1.0000   1.0000
     1.0000   1.0000   1.0000   1.0000   1.0000   1.0000   1.0000   1.0000
     1.0000   1.0000   1.0000   1.0000   1.0000   1.0000   1.0000   1.0000
     1.0000   1.0000   1.0000   1.0000   1.0000   1.0000   1.0000   1.0000
     1.0000   1.0000  -0.0000  -0.0000  -0.0000  -0.0000  -0.0000  -0.0000
    -0.0000  -0.0000  -0.0000  -0.0000  -0.0000  -0.0000

          k = 0.0000 0.1000 0.5699 (  5374 PWs)   bands (ev):

   -79.3811 -79.3811 -79.3807 -79.3807 -46.2325 -46.2325 -46.2293 -46.2293
   -32.8130 -32.8130 -32.8031 -32.8031 -32.6365 -32.6365 -32.6239 -32.6239
    -5.9985  -5.9985  -5.6307  -5.6307  -5.3855  -5.3855  -5.3212  -5.3212
     5.5567   5.5567   5.8014   5.8014   6.2567   6.2567   6.7769   6.7769
     7.0967   7.0967   7.2504   7.2504   7.8808   7.8808   8.3922   8.3922
     8.5476   8.5476   9.4550   9.4550   9.7688   9.7688   9.8975   9.8975
    11.8263  11.8263  12.1043  12.1043  12.4697  12.4697  13.4010  13.4010
    13.8962  13.8962  14.1822  14.1822  15.8881  15.8881  15.9990  15.9990
    16.6967  16.6967  17.2598  17.2598  21.7747  21.7747

     occupation numbers 
     1.0000   1.0000   1.0000   1.0000   1.0000   1.0000   1.0000   1.0000
     1.0000   1.0000   1.0000   1.0000   1.0000   1.0000   1.0000   1.0000
     1.0000   1.0000   1.0000   1.0000   1.0000   1.0000   1.0000   1.0000
     1.0000   1.0000   1.0000   1.0000   1.0000   1.0000   1.0000   1.0000
     1.0000   1.0000   1.0000   1.0000   1.0000   1.0000   1.0000   1.0000
     1.0000   1.0000   1.0000   1.0000   1.0000   1.0000   1.0000   1.0000
     1.0000   1.0000   1.0000   1.0000   1.0000   1.0000   1.0000   1.0000
     0.2136   0.2136  -0.0000  -0.0000  -0.0000  -0.0000  -0.0000  -0.0000
    -0.0000  -0.0000  -0.0000  -0.0000  -0.0000  -0.0000

          k = 0.0000 0.2000 0.0000 (  5363 PWs)   bands (ev):

   -79.3836 -79.3836 -79.3825 -79.3825 -46.2251 -46.2251 -46.2164 -46.2164
   -32.7632 -32.7632 -32.7553 -32.7553 -32.6213 -32.6213 -32.6090 -32.6090
    -6.9265  -6.9265  -5.9084  -5.9084  -5.1314  -5.1314  -4.9394  -4.9394
     4.6377   4.6377   4.7986   4.7986   6.0864   6.0864   6.1764   6.1764
     6.5095   6.5095   8.4053   8.4053   8.5601   8.5601   8.7535   8.7535
     9.7121   9.7121   9.9927   9.9927  10.6475  10.6475  11.4536  11.4536
    11.5636  11.5636  11.6602  11.6602  11.9164  11.9164  12.0571  12.0571
    12.4794  12.4794  14.7667  14.7667  15.2853  15.2853  17.5399  17.5399
    17.8440  17.8440  18.5599  18.5599  19.0908  19.0908

     occupation numbers 
     1.0000   1.0000   1.0000   1.0000   1.0000   1.0000   1.0000   1.0000
     1.0000   1.0000   1.0000   1.0000   1.0000   1.0000   1.0000   1.0000
     1.0000   1.0000   1.0000   1.0000   1.0000   1.0000   1.0000   1.0000
     1.0000   1.0000   1.0000   1.0000   1.0000   1.0000   1.0000   1.0000
     1.0000   1.0000   1.0000   1.0000   1.0000   1.0000   1.0000   1.0000
     1.0000   1.0000   1.0000   1.0000   1.0000   1.0000   1.0000   1.0000
     1.0000   1.0000   1.0000   1.0000   1.0000   1.0000   1.0000   1.0000
     1.0000   1.0000  -0.0000  -0.0000  -0.0000  -0.0000  -0.0000  -0.0000
    -0.0000  -0.0000  -0.0000  -0.0000  -0.0000  -0.0000

          k = 0.0000 0.2000 0.2850 (  5369 PWs)   bands (ev):

   -79.3827 -79.3827 -79.3818 -79.3818 -46.2281 -46.2281 -46.2211 -46.2211
   -32.7810 -32.7810 -32.7693 -32.7693 -32.6332 -32.6332 -32.6146 -32.6146
    -6.6002  -6.6002  -5.7232  -5.7232  -5.2750  -5.2750  -5.1181  -5.1181
     5.0476   5.0476   5.1482   5.1482   6.3086   6.3086   6.3602   6.3602
     6.9822   6.9822   7.4873   7.4873   8.1148   8.1148   8.7920   8.7920
     9.0994   9.0994   9.7066   9.7066   9.8074   9.8074  11.1876  11.1876
    11.4042  11.4042  12.1892  12.1892  12.3241  12.3241  12.7425  12.7425
    13.0924  13.0924  14.4811  14.4811  15.8226  15.8226  16.5908  16.5908
    17.0005  17.0005  18.5675  18.5675  19.7100  19.7100

     occupation numbers 
     1.0000   1.0000   1.0000   1.0000   1.0000   1.0000   1.0000   1.0000
     1.0000   1.0000   1.0000   1.0000   1.0000   1.0000   1.0000   1.0000
     1.0000   1.0000   1.0000   1.0000   1.0000   1.0000   1.0000   1.0000
     1.0000   1.0000   1.0000   1.0000   1.0000   1.0000   1.0000   1.0000
     1.0000   1.0000   1.0000   1.0000   1.0000   1.0000   1.0000   1.0000
     1.0000   1.0000   1.0000   1.0000   1.0000   1.0000   1.0000   1.0000
     1.0000   1.0000   1.0000   1.0000   1.0000   1.0000   1.0000   1.0000
     1.0000   1.0000  -0.0000  -0.0000  -0.0000  -0.0000  -0.0000  -0.0000
    -0.0000  -0.0000  -0.0000  -0.0000  -0.0000  -0.0000

          k = 0.0000 0.2000 0.5699 (  5374 PWs)   bands (ev):

   -79.3811 -79.3811 -79.3808 -79.3808 -46.2323 -46.2323 -46.2294 -46.2294
   -32.8170 -32.8170 -32.7992 -32.7992 -32.6377 -32.6377 -32.6228 -32.6228
    -5.9685  -5.9685  -5.6590  -5.6590  -5.4067  -5.4067  -5.3007  -5.3007
     5.6342   5.6342   5.8449   5.8449   6.0266   6.0266   6.5222   6.5222
     7.2557   7.2557   7.3483   7.3483   8.0936   8.0936   8.4638   8.4638
     8.7003   8.7003   9.4703   9.4703   9.6897   9.6897   9.8881   9.8881
    11.8569  11.8569  12.0894  12.0894  12.2351  12.2351  13.0615  13.0615
    13.9356  13.9356  14.2903  14.2903  15.5632  15.5632  15.7154  15.7154
    17.0976  17.0976  17.7238  17.7238  21.9047  21.9047

     occupation numbers 
     1.0000   1.0000   1.0000   1.0000   1.0000   1.0000   1.0000   1.0000
     1.0000   1.0000   1.0000   1.0000   1.0000   1.0000   1.0000   1.0000
     1.0000   1.0000   1.0000   1.0000   1.0000   1.0000   1.0000   1.0000
     1.0000   1.0000   1.0000   1.0000   1.0000   1.0000   1.0000   1.0000
     1.0000   1.0000   1.0000   1.0000   1.0000   1.0000   1.0000   1.0000
     1.0000   1.0000   1.0000   1.0000   1.0000   1.0000   1.0000   1.0000
     1.0000   1.0000   1.0000   1.0000   1.0000   1.0000   1.0000   1.0000
    -0.0181  -0.0181  -0.0000  -0.0000  -0.0000  -0.0000  -0.0000  -0.0000
    -0.0000  -0.0000  -0.0000  -0.0000  -0.0000  -0.0000

          k = 0.0000 0.3000 0.0000 (  5376 PWs)   bands (ev):

   -79.3834 -79.3834 -79.3826 -79.3826 -46.2239 -46.2239 -46.2176 -46.2176
   -32.7612 -32.7612 -32.7554 -32.7554 -32.6208 -32.6208 -32.6118 -32.6118
    -6.7510  -6.7510  -5.9385  -5.9385  -5.2494  -5.2494  -5.0562  -5.0562
     5.0253   5.0253   5.1195   5.1195   6.1388   6.1388   6.2064   6.2064
     6.8204   6.8204   7.9246   7.9246   8.0910   8.0910   8.6357   8.6357
     9.2533   9.2533   9.3458   9.3458  10.6042  10.6042  11.2598  11.2598
    11.8280  11.8280  11.9384  11.9384  12.1605  12.1605  12.3357  12.3357
    12.8206  12.8206  14.4444  14.4444  15.9284  15.9284  17.4012  17.4012
    17.6515  17.6515  18.6557  18.6557  19.2557  19.2557

     occupation numbers 
     1.0000   1.0000   1.0000   1.0000   1.0000   1.0000   1.0000   1.0000
     1.0000   1.0000   1.0000   1.0000   1.0000   1.0000   1.0000   1.0000
     1.0000   1.0000   1.0000   1.0000   1.0000   1.0000   1.0000   1.0000
     1.0000   1.0000   1.0000   1.0000   1.0000   1.0000   1.0000   1.0000
     1.0000   1.0000   1.0000   1.0000   1.0000   1.0000   1.0000   1.0000
     1.0000   1.0000   1.0000   1.0000   1.0000   1.0000   1.0000   1.0000
     1.0000   1.0000   1.0000   1.0000   1.0000   1.0000   1.0000   1.0000
     1.0000   1.0000  -0.0000  -0.0000  -0.0000  -0.0000  -0.0000  -0.0000
    -0.0000  -0.0000  -0.0000  -0.0000  -0.0000  -0.0000

          k = 0.0000 0.3000 0.2850 (  5373 PWs)   bands (ev):

   -79.3825 -79.3825 -79.3819 -79.3819 -46.2272 -46.2272 -46.2220 -46.2220
   -32.7826 -32.7826 -32.7666 -32.7666 -32.6327 -32.6327 -32.6164 -32.6164
    -6.4460  -6.4460  -5.7157  -5.7157  -5.4022  -5.4022  -5.2094  -5.2094
     5.3476   5.3476   5.4584   5.4584   6.3178   6.3178   6.3875   6.3875
     7.0860   7.0860   7.5822   7.5822   7.7138   7.7138   8.3355   8.3355
     8.6217   8.6217   9.5310   9.5310  10.0951  10.0951  10.9922  10.9922
    11.6326  11.6326  12.3469  12.3469  12.4729  12.4729  12.7657  12.7657
    13.2635  13.2635  14.2404  14.2404  16.1365  16.1365  16.3755  16.3755
    16.9475  16.9475  18.4470  18.4470  20.2736  20.2736

     occupation numbers 
     1.0000   1.0000   1.0000   1.0000   1.0000   1.0000   1.0000   1.0000
     1.0000   1.0000   1.0000   1.0000   1.0000   1.0000   1.0000   1.0000
     1.0000   1.0000   1.0000   1.0000   1.0000   1.0000   1.0000   1.0000
     1.0000   1.0000   1.0000   1.0000   1.0000   1.0000   1.0000   1.0000
     1.0000   1.0000   1.0000   1.0000   1.0000   1.0000   1.0000   1.0000
     1.0000   1.0000   1.0000   1.0000   1.0000   1.0000   1.0000   1.0000
     1.0000   1.0000   1.0000   1.0000   1.0000   1.0000   1.0000   1.0000
     1.0000   1.0000  -0.0000  -0.0000  -0.0000  -0.0000  -0.0000  -0.0000
    -0.0000  -0.0000  -0.0000  -0.0000  -0.0000  -0.0000

          k = 0.0000 0.3000 0.5699 (  5364 PWs)   bands (ev):

   -79.3811 -79.3811 -79.3808 -79.3808 -46.2321 -46.2321 -46.2297 -46.2297
   -32.8203 -32.8203 -32.7960 -32.7960 -32.6389 -32.6389 -32.6217 -32.6217
    -5.9233  -5.9233  -5.7016  -5.7016  -5.4220  -5.4220  -5.2868  -5.2868
     5.6867   5.6867   5.7960   5.7960   5.9969   5.9969   6.3168   6.3168
     7.2469   7.2469   7.5841   7.5841   8.0918   8.0918   8.6888   8.6888
     8.9480   8.9480   9.2295   9.2295   9.5625   9.5625  10.2770  10.2770
    11.5920  11.5920  12.0598  12.0598  12.1271  12.1271  12.6819  12.6819
    13.9915  13.9915  14.3646  14.3646  15.2846  15.2846  15.4762  15.4762
    17.5419  17.5419  18.0943  18.0943  22.1314  22.1314

     occupation numbers 
     1.0000   1.0000   1.0000   1.0000   1.0000   1.0000   1.0000   1.0000
     1.0000   1.0000   1.0000   1.0000   1.0000   1.0000   1.0000   1.0000
     1.0000   1.0000   1.0000   1.0000   1.0000   1.0000   1.0000   1.0000
     1.0000   1.0000   1.0000   1.0000   1.0000   1.0000   1.0000   1.0000
     1.0000   1.0000   1.0000   1.0000   1.0000   1.0000   1.0000   1.0000
     1.0000   1.0000   1.0000   1.0000   1.0000   1.0000   1.0000   1.0000
     1.0000   1.0000   1.0000   1.0000   1.0000   1.0000   1.0000   1.0000
    -0.0158  -0.0158  -0.0000  -0.0000  -0.0000  -0.0000  -0.0000  -0.0000
    -0.0000  -0.0000  -0.0000  -0.0000  -0.0000  -0.0000

          k = 0.0000 0.4000 0.0000 (  5370 PWs)   bands (ev):

   -79.3832 -79.3832 -79.3828 -79.3828 -46.2224 -46.2224 -46.2191 -46.2191
   -32.7590 -32.7590 -32.7560 -32.7560 -32.6196 -32.6196 -32.6149 -32.6149
    -6.5268  -6.5268  -6.0639  -6.0639  -5.3041  -5.3041  -5.1708  -5.1708
     5.4157   5.4157   5.4742   5.4742   6.1969   6.1969   6.2318   6.2318
     7.1968   7.1968   7.5474   7.5474   7.5802   7.5802   8.5267   8.5267
     8.6615   8.6615   9.0043   9.0043  10.6730  10.6730  11.0360  11.0360
    12.0197  12.0197  12.1131  12.1131  12.3585  12.3585  12.5041  12.5041
    13.2165  13.2165  14.0567  14.0567  16.6439  16.6439  17.3001  17.3001
    17.4773  17.4773  18.0995  18.0995  20.0222  20.0222

     occupation numbers 
     1.0000   1.0000   1.0000   1.0000   1.0000   1.0000   1.0000   1.0000
     1.0000   1.0000   1.0000   1.0000   1.0000   1.0000   1.0000   1.0000
     1.0000   1.0000   1.0000   1.0000   1.0000   1.0000   1.0000   1.0000
     1.0000   1.0000   1.0000   1.0000   1.0000   1.0000   1.0000   1.0000
     1.0000   1.0000   1.0000   1.0000   1.0000   1.0000   1.0000   1.0000
     1.0000   1.0000   1.0000   1.0000   1.0000   1.0000   1.0000   1.0000
     1.0000   1.0000   1.0000   1.0000   1.0000   1.0000   1.0000   1.0000
     1.0000   1.0000  -0.0004  -0.0004  -0.0000  -0.0000  -0.0000  -0.0000
    -0.0000  -0.0000  -0.0000  -0.0000  -0.0000  -0.0000

          k = 0.0000 0.4000 0.2850 (  5381 PWs)   bands (ev):

   -79.3824 -79.3824 -79.3821 -79.3821 -46.2261 -46.2261 -46.2232 -46.2232
   -32.7836 -32.7836 -32.7647 -32.7647 -32.6323 -32.6323 -32.6180 -32.6180
    -6.2476  -6.2476  -5.8167  -5.8167  -5.4524  -5.4524  -5.3018  -5.3018
     5.6922   5.6922   5.8130   5.8130   6.2848   6.2848   6.4016   6.4016
     7.0186   7.0186   7.3144   7.3144   7.9390   7.9390   8.0142   8.0142
     8.2572   8.2572   9.1278   9.1278  10.3765  10.3765  10.7905  10.7905
    11.9160  11.9160  12.2743  12.2743  12.6371  12.6371  12.8831  12.8831
    13.4205  13.4205  14.0002  14.0002  16.1215  16.1215  16.2972  16.2972
    17.2325  17.2325  18.1367  18.1367  20.9583  20.9583

     occupation numbers 
     1.0000   1.0000   1.0000   1.0000   1.0000   1.0000   1.0000   1.0000
     1.0000   1.0000   1.0000   1.0000   1.0000   1.0000   1.0000   1.0000
     1.0000   1.0000   1.0000   1.0000   1.0000   1.0000   1.0000   1.0000
     1.0000   1.0000   1.0000   1.0000   1.0000   1.0000   1.0000   1.0000
     1.0000   1.0000   1.0000   1.0000   1.0000   1.0000   1.0000   1.0000
     1.0000   1.0000   1.0000   1.0000   1.0000   1.0000   1.0000   1.0000
     1.0000   1.0000   1.0000   1.0000   1.0000   1.0000   1.0000   1.0000
     1.0000   1.0000  -0.0111  -0.0111  -0.0000  -0.0000  -0.0000  -0.0000
    -0.0000  -0.0000  -0.0000  -0.0000  -0.0000  -0.0000

          k = 0.0000 0.4000 0.5699 (  5373 PWs)   bands (ev):

   -79.3810 -79.3810 -79.3809 -79.3809 -46.2319 -46.2319 -46.2299 -46.2299
   -32.8224 -32.8224 -32.7940 -32.7940 -32.6397 -32.6397 -32.6209 -32.6209
    -5.8688  -5.8688  -5.7536  -5.7536  -5.4306  -5.4306  -5.2797  -5.2797
     5.6543   5.6543   5.7267   5.7267   6.0967   6.0967   6.2252   6.2252
     7.2522   7.2522   7.6824   7.6824   8.1612   8.1612   8.7857   8.7857
     8.9194   8.9194   9.0760   9.0760   9.8309   9.8309  10.6542  10.6542
    11.1916  11.1916  11.8547  11.8547  12.1052  12.1052  12.4668  12.4668
    14.0325  14.0325  14.4089  14.4089  15.1412  15.1412  15.2741  15.2741
    17.9297  17.9297  18.2786  18.2786  22.4627  22.4627

     occupation numbers 
     1.0000   1.0000   1.0000   1.0000   1.0000   1.0000   1.0000   1.0000
     1.0000   1.0000   1.0000   1.0000   1.0000   1.0000   1.0000   1.0000
     1.0000   1.0000   1.0000   1.0000   1.0000   1.0000   1.0000   1.0000
     1.0000   1.0000   1.0000   1.0000   1.0000   1.0000   1.0000   1.0000
     1.0000   1.0000   1.0000   1.0000   1.0000   1.0000   1.0000   1.0000
     1.0000   1.0000   1.0000   1.0000   1.0000   1.0000   1.0000   1.0000
     1.0000   1.0000   1.0000   1.0000   1.0000   1.0000   1.0000   1.0000
    -0.0020  -0.0020  -0.0000  -0.0000  -0.0000  -0.0000  -0.0000  -0.0000
    -0.0000  -0.0000  -0.0000  -0.0000  -0.0000  -0.0000

          k = 0.0000-0.5000 0.0000 (  5380 PWs)   bands (ev):

   -79.3830 -79.3830 -79.3830 -79.3830 -46.2208 -46.2208 -46.2208 -46.2208
   -32.7572 -32.7572 -32.7572 -32.7572 -32.6176 -32.6176 -32.6176 -32.6176
    -6.2815  -6.2815  -6.2815  -6.2815  -5.2645  -5.2645  -5.2645  -5.2645
     5.6282   5.6282   5.6282   5.6282   6.2391   6.2391   6.2391   6.2391
     7.2627   7.2627   7.2627   7.2627   7.8916   7.8916   7.8916   7.8916
     8.7692   8.7692   8.7692   8.7692  10.8273  10.8273  10.8273  10.8273
    12.1250  12.1250  12.1250  12.1250  12.5027  12.5027  12.5027  12.5027
    13.6386  13.6386  13.6386  13.6386  17.2184  17.2184  17.2184  17.2184
    17.5166  17.5166  17.5166  17.5166  20.7713  20.7713

     occupation numbers 
     1.0000   1.0000   1.0000   1.0000   1.0000   1.0000   1.0000   1.0000
     1.0000   1.0000   1.0000   1.0000   1.0000   1.0000   1.0000   1.0000
     1.0000   1.0000   1.0000   1.0000   1.0000   1.0000   1.0000   1.0000
     1.0000   1.0000   1.0000   1.0000   1.0000   1.0000   1.0000   1.0000
     1.0000   1.0000   1.0000   1.0000   1.0000   1.0000   1.0000   1.0000
     1.0000   1.0000   1.0000   1.0000   1.0000   1.0000   1.0000   1.0000
     1.0000   1.0000   1.0000   1.0000   1.0000   1.0000   1.0000   1.0000
     1.0000   1.0000   1.0000   1.0000  -0.0000  -0.0000  -0.0000  -0.0000
    -0.0000  -0.0000  -0.0000  -0.0000  -0.0000  -0.0000

          k = 0.0000-0.5000 0.2850 (  5378 PWs)   bands (ev):

   -79.3822 -79.3822 -79.3822 -79.3822 -46.2252 -46.2252 -46.2241 -46.2241
   -32.7840 -32.7840 -32.7641 -32.7641 -32.6320 -32.6320 -32.6186 -32.6186
    -6.0426  -6.0426  -6.0058  -6.0058  -5.4205  -5.4205  -5.3667  -5.3667
     5.9165   5.9165   6.0184   6.0184   6.2607   6.2607   6.3033   6.3033
     7.0674   7.0674   7.0734   7.0734   7.8906   7.8906   7.9074   7.9074
     8.5871   8.5871   8.6419   8.6419  10.6047  10.6047  10.6069  10.6069
    12.0943  12.0943  12.1611  12.1611  12.7147  12.7147  12.9337  12.9337
    13.4929  13.4929  13.8835  13.8835  16.0848  16.0848  16.2442  16.2442
    17.6828  17.6828  17.7219  17.7219  21.6374  21.6429

     occupation numbers 
     1.0000   1.0000   1.0000   1.0000   1.0000   1.0000   1.0000   1.0000
     1.0000   1.0000   1.0000   1.0000   1.0000   1.0000   1.0000   1.0000
     1.0000   1.0000   1.0000   1.0000   1.0000   1.0000   1.0000   1.0000
     1.0000   1.0000   1.0000   1.0000   1.0000   1.0000   1.0000   1.0000
     1.0000   1.0000   1.0000   1.0000   1.0000   1.0000   1.0000   1.0000
     1.0000   1.0000   1.0000   1.0000   1.0000   1.0000   1.0000   1.0000
     1.0000   1.0000   1.0000   1.0000   1.0000   1.0000   1.0000   1.0000
     1.0000   1.0000   0.3532   0.3532  -0.0000  -0.0000  -0.0000  -0.0000
    -0.0000  -0.0000  -0.0000  -0.0000  -0.0000  -0.0000

          k = 0.0000-0.5000 0.5699 (  5376 PWs)   bands (ev):

   -79.3809 -79.3809 -79.3809 -79.3809 -46.2318 -46.2318 -46.2300 -46.2300
   -32.8231 -32.8231 -32.7933 -32.7933 -32.6400 -32.6400 -32.6206 -32.6206
    -5.8120  -5.8120  -5.8093  -5.8093  -5.4333  -5.4333  -5.2777  -5.2777
     5.6446   5.6446   5.6824   5.6824   6.1737   6.1737   6.1835   6.1835
     7.2733   7.2733   7.6369   7.6369   8.4706   8.4706   8.4711   8.4711
     8.9250   8.9250   9.0519   9.0519  10.3404  10.3404  10.3764  10.3764
    11.4082  11.4082  11.4283  11.4283  12.1169  12.1169  12.4290  12.4290
    14.0474  14.0474  14.4234  14.4234  15.1450  15.1450  15.1490  15.1490
    18.1280  18.1280  18.2854  18.2854  22.8938  22.9030

     occupation numbers 
     1.0000   1.0000   1.0000   1.0000   1.0000   1.0000   1.0000   1.0000
     1.0000   1.0000   1.0000   1.0000   1.0000   1.0000   1.0000   1.0000
     1.0000   1.0000   1.0000   1.0000   1.0000   1.0000   1.0000   1.0000
     1.0000   1.0000   1.0000   1.0000   1.0000   1.0000   1.0000   1.0000
     1.0000   1.0000   1.0000   1.0000   1.0000   1.0000   1.0000   1.0000
     1.0000   1.0000   1.0000   1.0000   1.0000   1.0000   1.0000   1.0000
     1.0000   1.0000   1.0000   1.0000   1.0000   1.0000   1.0000   1.0000
    -0.0008  -0.0008  -0.0000  -0.0000  -0.0000  -0.0000  -0.0000  -0.0000
    -0.0000  -0.0000  -0.0000  -0.0000  -0.0000  -0.0000

          k = 0.1000 0.1000 0.0000 (  5355 PWs)   bands (ev):

   -79.3836 -79.3836 -79.3824 -79.3824 -46.2256 -46.2256 -46.2159 -46.2159
   -32.7643 -32.7643 -32.7553 -32.7553 -32.6214 -32.6214 -32.6076 -32.6076
    -7.0019  -7.0019  -5.9106  -5.9106  -5.0784  -5.0784  -4.8643  -4.8643
     4.3656   4.3656   4.7464   4.7464   6.0534   6.0534   6.1659   6.1659
     6.3829   6.3829   8.4943   8.4943   8.7206   8.7206   9.0660   9.0660
    10.0118  10.0118  10.5346  10.5346  10.6521  10.6521  11.1426  11.1426
    11.5177  11.5177  11.5508  11.5508  11.7847  11.7847  11.8986  11.8986
    12.3297  12.3297  14.9268  14.9268  14.9350  14.9350  17.5966  17.5966
    17.9637  17.9637  18.2586  18.2586  19.2630  19.2630

     occupation numbers 
     1.0000   1.0000   1.0000   1.0000   1.0000   1.0000   1.0000   1.0000
     1.0000   1.0000   1.0000   1.0000   1.0000   1.0000   1.0000   1.0000
     1.0000   1.0000   1.0000   1.0000   1.0000   1.0000   1.0000   1.0000
     1.0000   1.0000   1.0000   1.0000   1.0000   1.0000   1.0000   1.0000
     1.0000   1.0000   1.0000   1.0000   1.0000   1.0000   1.0000   1.0000
     1.0000   1.0000   1.0000   1.0000   1.0000   1.0000   1.0000   1.0000
     1.0000   1.0000   1.0000   1.0000   1.0000   1.0000   1.0000   1.0000
     1.0000   1.0000  -0.0000  -0.0000  -0.0000  -0.0000  -0.0000  -0.0000
    -0.0000  -0.0000  -0.0000  -0.0000  -0.0000  -0.0000

          k = 0.1000 0.1000 0.2850 (  5385 PWs)   bands (ev):

   -79.3827 -79.3827 -79.3818 -79.3818 -46.2285 -46.2285 -46.2207 -46.2207
   -32.7796 -32.7796 -32.7713 -32.7713 -32.6333 -32.6333 -32.6137 -32.6137
    -6.6663  -6.6663  -5.7371  -5.7371  -5.2229  -5.2229  -5.0584  -5.0584
     4.8160   4.8160   5.1073   5.1073   6.2542   6.2542   6.4125   6.4125
     6.8357   6.8357   7.5131   7.5131   8.4538   8.4538   8.9092   8.9092
     9.3222   9.3222   9.6666   9.6666   9.8602   9.8602  11.0854  11.0854
    11.5087  11.5087  11.9199  11.9199  12.2722  12.2722  12.7721  12.7721
    13.0452  13.0452  14.5974  14.5974  15.5946  15.5946  16.6969  16.6969
    17.1356  17.1356  18.5150  18.5150  19.5054  19.5054

     occupation numbers 
     1.0000   1.0000   1.0000   1.0000   1.0000   1.0000   1.0000   1.0000
     1.0000   1.0000   1.0000   1.0000   1.0000   1.0000   1.0000   1.0000
     1.0000   1.0000   1.0000   1.0000   1.0000   1.0000   1.0000   1.0000
     1.0000   1.0000   1.0000   1.0000   1.0000   1.0000   1.0000   1.0000
     1.0000   1.0000   1.0000   1.0000   1.0000   1.0000   1.0000   1.0000
     1.0000   1.0000   1.0000   1.0000   1.0000   1.0000   1.0000   1.0000
     1.0000   1.0000   1.0000   1.0000   1.0000   1.0000   1.0000   1.0000
     1.0000   1.0000  -0.0000  -0.0000  -0.0000  -0.0000  -0.0000  -0.0000
    -0.0000  -0.0000  -0.0000  -0.0000  -0.0000  -0.0000

          k = 0.1000 0.1000 0.5699 (  5363 PWs)   bands (ev):

   -79.3811 -79.3811 -79.3808 -79.3808 -46.2324 -46.2324 -46.2293 -46.2293
   -32.8145 -32.8145 -32.8016 -32.8016 -32.6369 -32.6369 -32.6235 -32.6235
    -5.9880  -5.9880  -5.6382  -5.6382  -5.3963  -5.3963  -5.3127  -5.3127
     5.5801   5.5801   5.8234   5.8234   6.1539   6.1539   6.7601   6.7601
     6.9521   6.9521   7.4222   7.4222   7.9638   7.9638   8.4118   8.4118
     8.6014   8.6014   9.5028   9.5028   9.6581   9.6581   9.9351   9.9351
    11.8408  11.8408  12.1065  12.1065  12.3775  12.3775  13.3685  13.3685
    13.7698  13.7698  14.2849  14.2849  15.6102  15.6102  16.1805  16.1805
    16.6500  16.6500  17.4840  17.4840  21.8166  21.8166

     occupation numbers 
     1.0000   1.0000   1.0000   1.0000   1.0000   1.0000   1.0000   1.0000
     1.0000   1.0000   1.0000   1.0000   1.0000   1.0000   1.0000   1.0000
     1.0000   1.0000   1.0000   1.0000   1.0000   1.0000   1.0000   1.0000
     1.0000   1.0000   1.0000   1.0000   1.0000   1.0000   1.0000   1.0000
     1.0000   1.0000   1.0000   1.0000   1.0000   1.0000   1.0000   1.0000
     1.0000   1.0000   1.0000   1.0000   1.0000   1.0000   1.0000   1.0000
     1.0000   1.0000   1.0000   1.0000   1.0000   1.0000   1.0000   1.0000
     1.0279   1.0279  -0.0000  -0.0000  -0.0000  -0.0000  -0.0000  -0.0000
    -0.0000  -0.0000  -0.0000  -0.0000  -0.0000  -0.0000

          k = 0.1000 0.2000 0.0000 (  5372 PWs)   bands (ev):

   -79.3835 -79.3835 -79.3825 -79.3825 -46.2249 -46.2249 -46.2166 -46.2166
   -32.7630 -32.7630 -32.7553 -32.7553 -32.6212 -32.6212 -32.6094 -32.6094
    -6.8982  -6.8982  -5.9102  -5.9102  -5.1800  -5.1800  -4.9286  -4.9286
     4.4713   4.4713   5.0859   5.0859   6.0725   6.0725   6.1972   6.1972
     6.5685   6.5685   7.9977   7.9977   8.6348   8.6348   8.8889   8.8889
     9.7417   9.7417  10.0739  10.0739  10.4684  10.4684  11.3252  11.3252
    11.4198  11.4198  11.6985  11.6985  12.0008  12.0008  12.1867  12.1867
    12.5959  12.5959  14.7329  14.7329  15.2973  15.2973  17.4699  17.4699
    17.8735  17.8735  18.7545  18.7545  18.9924  18.9924

     occupation numbers 
     1.0000   1.0000   1.0000   1.0000   1.0000   1.0000   1.0000   1.0000
     1.0000   1.0000   1.0000   1.0000   1.0000   1.0000   1.0000   1.0000
     1.0000   1.0000   1.0000   1.0000   1.0000   1.0000   1.0000   1.0000
     1.0000   1.0000   1.0000   1.0000   1.0000   1.0000   1.0000   1.0000
     1.0000   1.0000   1.0000   1.0000   1.0000   1.0000   1.0000   1.0000
     1.0000   1.0000   1.0000   1.0000   1.0000   1.0000   1.0000   1.0000
     1.0000   1.0000   1.0000   1.0000   1.0000   1.0000   1.0000   1.0000
     1.0000   1.0000  -0.0000  -0.0000  -0.0000  -0.0000  -0.0000  -0.0000
    -0.0000  -0.0000  -0.0000  -0.0000  -0.0000  -0.0000

          k = 0.1000 0.2000 0.2850 (  5378 PWs)   bands (ev):

   -79.3826 -79.3826 -79.3818 -79.3818 -46.2280 -46.2280 -46.2213 -46.2213
   -32.7812 -32.7812 -32.7690 -32.7690 -32.6330 -32.6330 -32.6150 -32.6150
    -6.5750  -6.5750  -5.7171  -5.7171  -5.3222  -5.3222  -5.1090  -5.1090
     4.8883   4.8883   5.4089   5.4089   6.2213   6.2213   6.4443   6.4443
     7.0405   7.0405   7.3824   7.3824   8.2024   8.2024   8.4631   8.4631
     9.2603   9.2603   9.5836   9.5836   9.9973   9.9973  11.1773  11.1773
    11.3705  11.3705  12.0211  12.0211  12.4268  12.4268  12.7655  12.7655
    13.1742  13.1742  14.4418  14.4418  15.8533  15.8533  16.4759  16.4759
    17.0666  17.0666  18.5419  18.5419  19.8376  19.8376

     occupation numbers 
     1.0000   1.0000   1.0000   1.0000   1.0000   1.0000   1.0000   1.0000
     1.0000   1.0000   1.0000   1.0000   1.0000   1.0000   1.0000   1.0000
     1.0000   1.0000   1.0000   1.0000   1.0000   1.0000   1.0000   1.0000
     1.0000   1.0000   1.0000   1.0000   1.0000   1.0000   1.0000   1.0000
     1.0000   1.0000   1.0000   1.0000   1.0000   1.0000   1.0000   1.0000
     1.0000   1.0000   1.0000   1.0000   1.0000   1.0000   1.0000   1.0000
     1.0000   1.0000   1.0000   1.0000   1.0000   1.0000   1.0000   1.0000
     1.0000   1.0000  -0.0000  -0.0000  -0.0000  -0.0000  -0.0000  -0.0000
    -0.0000  -0.0000  -0.0000  -0.0000  -0.0000  -0.0000

          k = 0.1000 0.2000 0.5699 (  5365 PWs)   bands (ev):

   -79.3811 -79.3811 -79.3808 -79.3808 -46.2323 -46.2323 -46.2295 -46.2295
   -32.8174 -32.8174 -32.7988 -32.7988 -32.6377 -32.6377 -32.6228 -32.6228
    -5.9581  -5.9581  -5.6610  -5.6610  -5.4150  -5.4150  -5.2994  -5.2994
     5.6381   5.6381   5.8437   5.8437   6.0149   6.0149   6.5329   6.5329
     6.9829   6.9829   7.5744   7.5744   8.1420   8.1420   8.4818   8.4818
     8.7525   8.7525   9.3621   9.3621   9.6836   9.6836  10.0249  10.0249
    11.8266  11.8266  12.0621  12.0621  12.2231  12.2231  13.1133  13.1133
    13.7570  13.7570  14.3763  14.3763  15.3377  15.3377  15.9881  15.9881
    16.9660  16.9660  17.8443  17.8443  21.9440  21.9440

     occupation numbers 
     1.0000   1.0000   1.0000   1.0000   1.0000   1.0000   1.0000   1.0000
     1.0000   1.0000   1.0000   1.0000   1.0000   1.0000   1.0000   1.0000
     1.0000   1.0000   1.0000   1.0000   1.0000   1.0000   1.0000   1.0000
     1.0000   1.0000   1.0000   1.0000   1.0000   1.0000   1.0000   1.0000
     1.0000   1.0000   1.0000   1.0000   1.0000   1.0000   1.0000   1.0000
     1.0000   1.0000   1.0000   1.0000   1.0000   1.0000   1.0000   1.0000
     1.0000   1.0000   1.0000   1.0000   1.0000   1.0000   1.0000   1.0000
     1.0193   1.0193  -0.0000  -0.0000  -0.0000  -0.0000  -0.0000  -0.0000
    -0.0000  -0.0000  -0.0000  -0.0000  -0.0000  -0.0000

          k = 0.1000 0.3000 0.0000 (  5380 PWs)   bands (ev):

   -79.3834 -79.3834 -79.3827 -79.3827 -46.2238 -46.2238 -46.2178 -46.2178
   -32.7612 -32.7612 -32.7555 -32.7555 -32.6206 -32.6206 -32.6119 -32.6119
    -6.7344  -6.7344  -5.9528  -5.9528  -5.2788  -5.2788  -5.0261  -5.0261
     4.7158   4.7158   5.4602   5.4602   6.1077   6.1077   6.2297   6.2297
     6.8723   6.8723   7.5156   7.5156   8.4488   8.4488   8.6398   8.6398
     9.3758   9.3758   9.4421   9.4421  10.4313  10.4313  11.2006  11.2006
    11.6496  11.6496  11.9204  11.9204  12.1555  12.1555  12.4322  12.4322
    12.9131  12.9131  14.4379  14.4379  15.8639  15.8639  17.3530  17.3530
    17.7176  17.7176  18.5529  18.5529  19.4419  19.4419

     occupation numbers 
     1.0000   1.0000   1.0000   1.0000   1.0000   1.0000   1.0000   1.0000
     1.0000   1.0000   1.0000   1.0000   1.0000   1.0000   1.0000   1.0000
     1.0000   1.0000   1.0000   1.0000   1.0000   1.0000   1.0000   1.0000
     1.0000   1.0000   1.0000   1.0000   1.0000   1.0000   1.0000   1.0000
     1.0000   1.0000   1.0000   1.0000   1.0000   1.0000   1.0000   1.0000
     1.0000   1.0000   1.0000   1.0000   1.0000   1.0000   1.0000   1.0000
     1.0000   1.0000   1.0000   1.0000   1.0000   1.0000   1.0000   1.0000
     1.0000   1.0000  -0.0000  -0.0000  -0.0000  -0.0000  -0.0000  -0.0000
    -0.0000  -0.0000  -0.0000  -0.0000  -0.0000  -0.0000

          k = 0.1000 0.3000 0.2850 (  5378 PWs)   bands (ev):

   -79.3825 -79.3825 -79.3819 -79.3819 -46.2271 -46.2271 -46.2222 -46.2222
   -32.7825 -32.7825 -32.7668 -32.7668 -32.6324 -32.6324 -32.6167 -32.6167
    -6.4309  -6.4309  -5.7236  -5.7236  -5.4297  -5.4297  -5.1864  -5.1864
     5.0898   5.0898   5.7549   5.7549   6.2303   6.2303   6.4089   6.4089
     7.0795   7.0795   7.5081   7.5081   7.8914   7.8914   8.0940   8.0940
     8.9420   8.9420   9.4875   9.4875  10.0907  10.0907  10.9226  10.9226
    11.6452  11.6452  12.1933  12.1933  12.4812  12.4812  12.8428  12.8428
    13.3063  13.3063  14.2147  14.2147  16.0961  16.0961  16.3796  16.3796
    16.9936  16.9936  18.3850  18.3850  20.3978  20.3978

     occupation numbers 
     1.0000   1.0000   1.0000   1.0000   1.0000   1.0000   1.0000   1.0000
     1.0000   1.0000   1.0000   1.0000   1.0000   1.0000   1.0000   1.0000
     1.0000   1.0000   1.0000   1.0000   1.0000   1.0000   1.0000   1.0000
     1.0000   1.0000   1.0000   1.0000   1.0000   1.0000   1.0000   1.0000
     1.0000   1.0000   1.0000   1.0000   1.0000   1.0000   1.0000   1.0000
     1.0000   1.0000   1.0000   1.0000   1.0000   1.0000   1.0000   1.0000
     1.0000   1.0000   1.0000   1.0000   1.0000   1.0000   1.0000   1.0000
     1.0000   1.0000  -0.0000  -0.0000  -0.0000  -0.0000  -0.0000  -0.0000
    -0.0000  -0.0000  -0.0000  -0.0000  -0.0000  -0.0000

          k = 0.1000 0.3000 0.5699 (  5363 PWs)   bands (ev):

   -79.3810 -79.3810 -79.3808 -79.3808 -46.2321 -46.2321 -46.2297 -46.2297
   -32.8200 -32.8200 -32.7963 -32.7963 -32.6387 -32.6387 -32.6219 -32.6219
    -5.9132  -5.9132  -5.6981  -5.6981  -5.4293  -5.4293  -5.2909  -5.2909
     5.6804   5.6804   5.7641   5.7641   6.0444   6.0444   6.3136   6.3136
     7.0588   7.0588   7.6685   7.6685   8.1687   8.1687   8.6792   8.6792
     8.9004   8.9004   9.2355   9.2355   9.6376   9.6376  10.3629  10.3629
    11.5486  11.5486  12.0367  12.0367  12.1655  12.1655  12.7311  12.7311
    13.8587  13.8587  14.3979  14.3979  15.1633  15.1633  15.6897  15.6897
    17.4145  17.4145  18.1273  18.1273  22.1634  22.1634

     occupation numbers 
     1.0000   1.0000   1.0000   1.0000   1.0000   1.0000   1.0000   1.0000
     1.0000   1.0000   1.0000   1.0000   1.0000   1.0000   1.0000   1.0000
     1.0000   1.0000   1.0000   1.0000   1.0000   1.0000   1.0000   1.0000
     1.0000   1.0000   1.0000   1.0000   1.0000   1.0000   1.0000   1.0000
     1.0000   1.0000   1.0000   1.0000   1.0000   1.0000   1.0000   1.0000
     1.0000   1.0000   1.0000   1.0000   1.0000   1.0000   1.0000   1.0000
     1.0000   1.0000   1.0000   1.0000   1.0000   1.0000   1.0000   1.0000
     0.6552   0.6552  -0.0000  -0.0000  -0.0000  -0.0000  -0.0000  -0.0000
    -0.0000  -0.0000  -0.0000  -0.0000  -0.0000  -0.0000

          k = 0.1000 0.4000 0.0000 (  5380 PWs)   bands (ev):

   -79.3832 -79.3832 -79.3828 -79.3828 -46.2223 -46.2223 -46.2192 -46.2192
   -32.7592 -32.7592 -32.7562 -32.7562 -32.6194 -32.6194 -32.6148 -32.6148
    -6.5255  -6.5255  -6.0868  -6.0868  -5.3010  -5.3010  -5.1383  -5.1383
     5.0658   5.0658   5.6371   5.6371   6.1550   6.1550   6.2426   6.2426
     7.1926   7.1926   7.3867   7.3867   8.0088   8.0088   8.6112   8.6112
     8.7468   8.7468   9.0905   9.0905  10.5303  10.5303  10.9569  10.9569
    11.9176  11.9176  12.0998  12.0998  12.2670  12.2670  12.5215  12.5215
    13.2859  13.2859  14.0796  14.0796  16.5329  16.5329  17.3157  17.3157
    17.5266  17.5266  18.0025  18.0025  20.1861  20.1861

     occupation numbers 
     1.0000   1.0000   1.0000   1.0000   1.0000   1.0000   1.0000   1.0000
     1.0000   1.0000   1.0000   1.0000   1.0000   1.0000   1.0000   1.0000
     1.0000   1.0000   1.0000   1.0000   1.0000   1.0000   1.0000   1.0000
     1.0000   1.0000   1.0000   1.0000   1.0000   1.0000   1.0000   1.0000
     1.0000   1.0000   1.0000   1.0000   1.0000   1.0000   1.0000   1.0000
     1.0000   1.0000   1.0000   1.0000   1.0000   1.0000   1.0000   1.0000
     1.0000   1.0000   1.0000   1.0000   1.0000   1.0000   1.0000   1.0000
     1.0000   1.0000  -0.0001  -0.0001  -0.0000  -0.0000  -0.0000  -0.0000
    -0.0000  -0.0000  -0.0000  -0.0000  -0.0000  -0.0000

          k = 0.1000 0.4000 0.2850 (  5373 PWs)   bands (ev):

   -79.3824 -79.3824 -79.3821 -79.3821 -46.2260 -46.2260 -46.2233 -46.2233
   -32.7833 -32.7833 -32.7653 -32.7653 -32.6318 -32.6318 -32.6182 -32.6182
    -6.2462  -6.2462  -5.8410  -5.8410  -5.4440  -5.4440  -5.2773  -5.2773
     5.3949   5.3949   5.9788   5.9788   6.2362   6.2362   6.3194   6.3194
     7.0513   7.0513   7.4569   7.4569   7.8583   7.8583   8.1375   8.1375
     8.4993   8.4993   9.1467   9.1467  10.2857  10.2857  10.7072  10.7072
    11.9259  11.9259  12.2393  12.2393  12.5847  12.5847  12.8906  12.8906
    13.4325  13.4325  13.9807  13.9807  16.1158  16.1158  16.3893  16.3893
    17.1954  17.1954  18.0646  18.0646  21.0577  21.0577

     occupation numbers 
     1.0000   1.0000   1.0000   1.0000   1.0000   1.0000   1.0000   1.0000
     1.0000   1.0000   1.0000   1.0000   1.0000   1.0000   1.0000   1.0000
     1.0000   1.0000   1.0000   1.0000   1.0000   1.0000   1.0000   1.0000
     1.0000   1.0000   1.0000   1.0000   1.0000   1.0000   1.0000   1.0000
     1.0000   1.0000   1.0000   1.0000   1.0000   1.0000   1.0000   1.0000
     1.0000   1.0000   1.0000   1.0000   1.0000   1.0000   1.0000   1.0000
     1.0000   1.0000   1.0000   1.0000   1.0000   1.0000   1.0000   1.0000
     1.0000   1.0000  -0.0228  -0.0228  -0.0000  -0.0000  -0.0000  -0.0000
    -0.0000  -0.0000  -0.0000  -0.0000  -0.0000  -0.0000

          k = 0.1000 0.4000 0.5699 (  5368 PWs)   bands (ev):

   -79.3810 -79.3810 -79.3809 -79.3809 -46.2319 -46.2319 -46.2299 -46.2299
   -32.8218 -32.8218 -32.7946 -32.7946 -32.6394 -32.6394 -32.6213 -32.6213
    -5.8590  -5.8590  -5.7463  -5.7463  -5.4367  -5.4367  -5.2877  -5.2877
     5.6507   5.6507   5.7217   5.7217   6.1005   6.1005   6.2160   6.2160
     7.1621   7.1621   7.6247   7.6247   8.2449   8.2449   8.6947   8.6947
     8.9186   8.9186   9.2056   9.2056   9.8723   9.8723  10.6821  10.6821
    11.2238  11.2238  11.9087  11.9087  12.1058  12.1058  12.4758  12.4758
    13.9561  13.9561  14.3821  14.3821  15.1199  15.1199  15.4165  15.4165
    17.8233  17.8233  18.2420  18.2420  22.4835  22.4836

     occupation numbers 
     1.0000   1.0000   1.0000   1.0000   1.0000   1.0000   1.0000   1.0000
     1.0000   1.0000   1.0000   1.0000   1.0000   1.0000   1.0000   1.0000
     1.0000   1.0000   1.0000   1.0000   1.0000   1.0000   1.0000   1.0000
     1.0000   1.0000   1.0000   1.0000   1.0000   1.0000   1.0000   1.0000
     1.0000   1.0000   1.0000   1.0000   1.0000   1.0000   1.0000   1.0000
     1.0000   1.0000   1.0000   1.0000   1.0000   1.0000   1.0000   1.0000
     1.0000   1.0000   1.0000   1.0000   1.0000   1.0000   1.0000   1.0000
    -0.0354  -0.0354  -0.0000  -0.0000  -0.0000  -0.0000  -0.0000  -0.0000
    -0.0000  -0.0000  -0.0000  -0.0000  -0.0000  -0.0000

          k = 0.1000-0.5000 0.0000 (  5372 PWs)   bands (ev):

   -79.3830 -79.3830 -79.3830 -79.3830 -46.2208 -46.2208 -46.2208 -46.2208
   -32.7574 -32.7574 -32.7574 -32.7574 -32.6174 -32.6174 -32.6174 -32.6174
    -6.2962  -6.2962  -6.2962  -6.2962  -5.2409  -5.2409  -5.2409  -5.2409
     5.4388   5.4388   5.4388   5.4388   6.2049   6.2049   6.2049   6.2049
     7.4419   7.4419   7.4419   7.4419   8.0261   8.0261   8.0261   8.0261
     8.8368   8.8368   8.8368   8.8368  10.7190  10.7190  10.7190  10.7190
    12.0788  12.0788  12.0788  12.0788  12.4377  12.4377  12.4377  12.4377
    13.6866  13.6866  13.6866  13.6866  17.1549  17.1549  17.1549  17.1549
    17.5130  17.5130  17.5130  17.5130  20.9015  20.9015

     occupation numbers 
     1.0000   1.0000   1.0000   1.0000   1.0000   1.0000   1.0000   1.0000
     1.0000   1.0000   1.0000   1.0000   1.0000   1.0000   1.0000   1.0000
     1.0000   1.0000   1.0000   1.0000   1.0000   1.0000   1.0000   1.0000
     1.0000   1.0000   1.0000   1.0000   1.0000   1.0000   1.0000   1.0000
     1.0000   1.0000   1.0000   1.0000   1.0000   1.0000   1.0000   1.0000
     1.0000   1.0000   1.0000   1.0000   1.0000   1.0000   1.0000   1.0000
     1.0000   1.0000   1.0000   1.0000   1.0000   1.0000   1.0000   1.0000
     1.0004   1.0004   1.0004   1.0004  -0.0000  -0.0000  -0.0000  -0.0000
    -0.0000  -0.0000  -0.0000  -0.0000  -0.0000  -0.0000

          k = 0.1000-0.5000 0.2850 (  5370 PWs)   bands (ev):

   -79.3822 -79.3822 -79.3822 -79.3822 -46.2252 -46.2252 -46.2241 -46.2241
   -32.7836 -32.7836 -32.7648 -32.7648 -32.6316 -32.6316 -32.6189 -32.6189
    -6.0559  -6.0559  -6.0212  -6.0212  -5.3988  -5.3988  -5.3470  -5.3470
     5.7085   5.7085   5.7980   5.7980   6.2722   6.2722   6.3138   6.3138
     7.1923   7.1923   7.1952   7.1952   8.0593   8.0593   8.0593   8.0593
     8.6275   8.6275   8.6807   8.6807  10.5061  10.5061  10.5079  10.5079
    12.0947  12.0947  12.1678  12.1678  12.6882  12.6882  12.8691  12.8691
    13.5088  13.5088  13.8565  13.8565  16.1482  16.1482  16.3114  16.3114
    17.6261  17.6261  17.6442  17.6442  21.7058  21.7157

     occupation numbers 
     1.0000   1.0000   1.0000   1.0000   1.0000   1.0000   1.0000   1.0000
     1.0000   1.0000   1.0000   1.0000   1.0000   1.0000   1.0000   1.0000
     1.0000   1.0000   1.0000   1.0000   1.0000   1.0000   1.0000   1.0000
     1.0000   1.0000   1.0000   1.0000   1.0000   1.0000   1.0000   1.0000
     1.0000   1.0000   1.0000   1.0000   1.0000   1.0000   1.0000   1.0000
     1.0000   1.0000   1.0000   1.0000   1.0000   1.0000   1.0000   1.0000
     1.0000   1.0000   1.0000   1.0000   1.0000   1.0000   1.0000   1.0000
     1.0000   1.0000   0.6814   0.6814  -0.0000  -0.0000  -0.0000  -0.0000
    -0.0000  -0.0000  -0.0000  -0.0000  -0.0000  -0.0000

          k = 0.1000-0.5000 0.5699 (  5376 PWs)   bands (ev):

   -79.3809 -79.3809 -79.3809 -79.3809 -46.2318 -46.2318 -46.2300 -46.2300
   -32.8224 -32.8224 -32.7941 -32.7941 -32.6396 -32.6396 -32.6211 -32.6211
    -5.8046  -5.8046  -5.7986  -5.7986  -5.4388  -5.4388  -5.2871  -5.2871
     5.6523   5.6523   5.6778   5.6778   6.1398   6.1398   6.1857   6.1857
     7.2575   7.2575   7.5172   7.5172   8.4379   8.4379   8.4978   8.4978
     9.0004   9.0004   9.1144   9.1144  10.3545  10.3545  10.3790  10.3790
    11.4874  11.4874  11.5039  11.5039  12.1109  12.1109  12.4245  12.4245
    13.9965  13.9965  14.3693  14.3693  15.2114  15.2114  15.2142  15.2142
    18.0538  18.0538  18.2006  18.2006  22.9117  22.9171

     occupation numbers 
     1.0000   1.0000   1.0000   1.0000   1.0000   1.0000   1.0000   1.0000
     1.0000   1.0000   1.0000   1.0000   1.0000   1.0000   1.0000   1.0000
     1.0000   1.0000   1.0000   1.0000   1.0000   1.0000   1.0000   1.0000
     1.0000   1.0000   1.0000   1.0000   1.0000   1.0000   1.0000   1.0000
     1.0000   1.0000   1.0000   1.0000   1.0000   1.0000   1.0000   1.0000
     1.0000   1.0000   1.0000   1.0000   1.0000   1.0000   1.0000   1.0000
     1.0000   1.0000   1.0000   1.0000   1.0000   1.0000   1.0000   1.0000
    -0.0130  -0.0130  -0.0000  -0.0000  -0.0000  -0.0000  -0.0000  -0.0000
    -0.0000  -0.0000  -0.0000  -0.0000  -0.0000  -0.0000

          k = 0.2000 0.2000 0.0000 (  5377 PWs)   bands (ev):

   -79.3835 -79.3835 -79.3826 -79.3826 -46.2243 -46.2243 -46.2172 -46.2172
   -32.7623 -32.7623 -32.7554 -32.7554 -32.6209 -32.6209 -32.6106 -32.6106
    -6.8155  -6.8155  -5.9303  -5.9303  -5.2648  -5.2648  -4.9363  -4.9363
     4.3963   4.3963   5.4678   5.4678   6.0587   6.0587   6.2310   6.2310
     6.7412   6.7412   7.5103   7.5103   8.6050   8.6050   8.9611   8.9611
     9.7303   9.7303  10.0143  10.0143  10.2545  10.2545  11.1517  11.1517
    11.2910  11.2910  11.6624  11.6624  12.1309  12.1309  12.4106  12.4106
    12.8457  12.8457  14.6114  14.6114  15.4308  15.4308  17.3634  17.3634
    17.8756  17.8756  18.7021  18.7021  19.2611  19.2611

     occupation numbers 
     1.0000   1.0000   1.0000   1.0000   1.0000   1.0000   1.0000   1.0000
     1.0000   1.0000   1.0000   1.0000   1.0000   1.0000   1.0000   1.0000
     1.0000   1.0000   1.0000   1.0000   1.0000   1.0000   1.0000   1.0000
     1.0000   1.0000   1.0000   1.0000   1.0000   1.0000   1.0000   1.0000
     1.0000   1.0000   1.0000   1.0000   1.0000   1.0000   1.0000   1.0000
[...]
     1.0000   1.0000   1.0000   1.0000   1.0000   1.0000   1.0000   1.0000
     1.0000   1.0000   1.0198   1.0198  -0.0000  -0.0000  -0.0000  -0.0000
    -0.0000  -0.0000  -0.0000  -0.0000  -0.0000  -0.0000

          k = 0.4000 0.4000 0.5699 (  5365 PWs)   bands (ev):

   -79.3810 -79.3810 -79.3809 -79.3809 -46.2313 -46.2313 -46.2305 -46.2305
   -32.8145 -32.8145 -32.8021 -32.8021 -32.6347 -32.6347 -32.6266 -32.6266
    -5.7490  -5.7490  -5.6915  -5.6915  -5.4795  -5.4795  -5.3849  -5.3849
     5.5766   5.5766   5.6507   5.6507   6.0904   6.0904   6.2759   6.2759
     6.7686   6.7686   7.1493   7.1493   8.3439   8.3439   8.4457   8.4457
     9.3826   9.3826   9.5838   9.5838  10.2795  10.2795  10.6336  10.6336
    11.8778  11.8778  11.9901  11.9901  12.2846  12.2846  12.8563  12.8563
    13.2652  13.2652  13.8526  13.8526  15.6799  15.6799  16.1793  16.1793
    17.0566  17.0566  17.5622  17.5622  22.7903  22.7904

     occupation numbers 
     1.0000   1.0000   1.0000   1.0000   1.0000   1.0000   1.0000   1.0000
     1.0000   1.0000   1.0000   1.0000   1.0000   1.0000   1.0000   1.0000
     1.0000   1.0000   1.0000   1.0000   1.0000   1.0000   1.0000   1.0000
     1.0000   1.0000   1.0000   1.0000   1.0000   1.0000   1.0000   1.0000
     1.0000   1.0000   1.0000   1.0000   1.0000   1.0000   1.0000   1.0000
     1.0000   1.0000   1.0000   1.0000   1.0000   1.0000   1.0000   1.0000
     1.0000   1.0000   1.0000   1.0000   1.0000   1.0000   1.0000   1.0000
     1.0000   1.0000   0.7250   0.7250  -0.0000  -0.0000  -0.0000  -0.0000
    -0.0000  -0.0000  -0.0000  -0.0000  -0.0000  -0.0000

          k = 0.4000-0.5000 0.0000 (  5400 PWs)   bands (ev):

   -79.3830 -79.3830 -79.3830 -79.3830 -46.2208 -46.2208 -46.2208 -46.2208
   -32.7596 -32.7596 -32.7596 -32.7596 -32.6155 -32.6155 -32.6155 -32.6155
    -6.4022  -6.4022  -6.4022  -6.4022  -5.0573  -5.0573  -5.0573  -5.0573
     4.4805   4.4805   4.4805   4.4805   6.0283   6.0283   6.0283   6.0283
     8.3872   8.3872   8.3872   8.3872   9.0321   9.0321   9.0321   9.0321
     9.5089   9.5089   9.5089   9.5089  10.1749  10.1749  10.1749  10.1749
    11.3204  11.3204  11.3204  11.3204  11.8478  11.8478  11.8478  11.8478
    14.0240  14.0240  14.0240  14.0240  16.3274  16.3274  16.3274  16.3274
    17.8798  17.8798  17.8798  17.8798  22.1140  22.1140

     occupation numbers 
     1.0000   1.0000   1.0000   1.0000   1.0000   1.0000   1.0000   1.0000
     1.0000   1.0000   1.0000   1.0000   1.0000   1.0000   1.0000   1.0000
     1.0000   1.0000   1.0000   1.0000   1.0000   1.0000   1.0000   1.0000
     1.0000   1.0000   1.0000   1.0000   1.0000   1.0000   1.0000   1.0000
     1.0000   1.0000   1.0000   1.0000   1.0000   1.0000   1.0000   1.0000
     1.0000   1.0000   1.0000   1.0000   1.0000   1.0000   1.0000   1.0000
     1.0000   1.0000   1.0000   1.0000   1.0000   1.0000   1.0000   1.0000
    -0.0034  -0.0034  -0.0034  -0.0034  -0.0000  -0.0000  -0.0000  -0.0000
    -0.0000  -0.0000  -0.0000  -0.0000  -0.0000  -0.0000

          k = 0.4000-0.5000 0.2850 (  5388 PWs)   bands (ev):

   -79.3822 -79.3822 -79.3822 -79.3822 -46.2248 -46.2248 -46.2245 -46.2245
   -32.7786 -32.7786 -32.7725 -32.7725 -32.6262 -32.6262 -32.6221 -32.6221
    -6.1414  -6.1414  -6.1308  -6.1308  -5.2296  -5.2296  -5.2114  -5.2114
     4.8605   4.8605   4.8893   4.8893   6.0560   6.0560   6.0628   6.0628
     8.1170   8.1170   8.1254   8.1254   8.7783   8.7783   8.8153   8.8153
     9.3446   9.3446   9.4135   9.4135   9.6331   9.6331   9.6375   9.6375
    11.8820  11.8820  11.9073  11.9073  12.4423  12.4423  12.5106  12.5106
    13.6253  13.6253  13.7014  13.7014  16.5504  16.5504  16.6760  16.6760
    17.1740  17.1740  17.2566  17.2566  22.4922  22.4943

     occupation numbers 
     1.0000   1.0000   1.0000   1.0000   1.0000   1.0000   1.0000   1.0000
     1.0000   1.0000   1.0000   1.0000   1.0000   1.0000   1.0000   1.0000
     1.0000   1.0000   1.0000   1.0000   1.0000   1.0000   1.0000   1.0000
     1.0000   1.0000   1.0000   1.0000   1.0000   1.0000   1.0000   1.0000
     1.0000   1.0000   1.0000   1.0000   1.0000   1.0000   1.0000   1.0000
     1.0000   1.0000   1.0000   1.0000   1.0000   1.0000   1.0000   1.0000
     1.0000   1.0000   1.0000   1.0000   1.0000   1.0000   1.0000   1.0000
     1.0000   1.0000   1.0012   1.0012  -0.0000  -0.0000  -0.0000  -0.0000
    -0.0000  -0.0000  -0.0000  -0.0000  -0.0000  -0.0000

          k = 0.4000-0.5000 0.5699 (  5354 PWs)   bands (ev):

   -79.3809 -79.3809 -79.3809 -79.3809 -46.2312 -46.2312 -46.2306 -46.2306
   -32.8129 -32.8129 -32.8037 -32.8037 -32.6337 -32.6337 -32.6277 -32.6277
    -5.7204  -5.7204  -5.6990  -5.6990  -5.4759  -5.4759  -5.4066  -5.4066
     5.5919   5.5919   5.6072   5.6072   6.1117   6.1117   6.2470   6.2470
     6.8839   6.8839   6.9666   6.9666   8.3600   8.3600   8.4269   8.4269
     9.5098   9.5098   9.5123   9.5123  10.4818  10.4818  10.4919  10.4919
    11.9620  11.9620  11.9713  11.9713  12.4621  12.4621  12.7064  12.7064
    13.3910  13.3910  13.6425  13.6425  15.9927  15.9927  16.0074  16.0074
    17.2153  17.2153  17.2529  17.2529  23.0289  23.0314

     occupation numbers 
     1.0000   1.0000   1.0000   1.0000   1.0000   1.0000   1.0000   1.0000
     1.0000   1.0000   1.0000   1.0000   1.0000   1.0000   1.0000   1.0000
     1.0000   1.0000   1.0000   1.0000   1.0000   1.0000   1.0000   1.0000
     1.0000   1.0000   1.0000   1.0000   1.0000   1.0000   1.0000   1.0000
     1.0000   1.0000   1.0000   1.0000   1.0000   1.0000   1.0000   1.0000
     1.0000   1.0000   1.0000   1.0000   1.0000   1.0000   1.0000   1.0000
     1.0000   1.0000   1.0000   1.0000   1.0000   1.0000   1.0000   1.0000
     1.0000   1.0000   1.0000   1.0000  -0.0000  -0.0000  -0.0000  -0.0000
    -0.0000  -0.0000  -0.0000  -0.0000  -0.0000  -0.0000

          k =-0.5000-0.5000 0.0000 (  5412 PWs)   bands (ev):

   -79.3830 -79.3830 -79.3830 -79.3830 -46.2208 -46.2208 -46.2208 -46.2208
   -32.7599 -32.7599 -32.7599 -32.7599 -32.6153 -32.6153 -32.6153 -32.6153
    -6.4131  -6.4131  -6.4131  -6.4131  -5.0371  -5.0371  -5.0371  -5.0371
     4.3988   4.3988   4.3988   4.3988   6.0111   6.0111   6.0111   6.0111
     8.7371   8.7371   8.7371   8.7371   8.7775   8.7775   8.7775   8.7775
     9.5936   9.5936   9.5936   9.5936  10.3592  10.3592  10.3592  10.3592
    11.1214  11.1214  11.1214  11.1214  11.7465  11.7465  11.7465  11.7465
    14.0541  14.0541  14.0541  14.0541  16.2363  16.2363  16.2363  16.2363
    17.9264  17.9264  17.9264  17.9264  22.8027  22.8031

     occupation numbers 
     1.0000   1.0000   1.0000   1.0000   1.0000   1.0000   1.0000   1.0000
     1.0000   1.0000   1.0000   1.0000   1.0000   1.0000   1.0000   1.0000
     1.0000   1.0000   1.0000   1.0000   1.0000   1.0000   1.0000   1.0000
     1.0000   1.0000   1.0000   1.0000   1.0000   1.0000   1.0000   1.0000
     1.0000   1.0000   1.0000   1.0000   1.0000   1.0000   1.0000   1.0000
     1.0000   1.0000   1.0000   1.0000   1.0000   1.0000   1.0000   1.0000
     1.0000   1.0000   1.0000   1.0000   1.0000   1.0000   1.0000   1.0000
    -0.0005  -0.0005  -0.0005  -0.0005  -0.0000  -0.0000  -0.0000  -0.0000
    -0.0000  -0.0000  -0.0000  -0.0000  -0.0000  -0.0000

          k =-0.5000-0.5000 0.2850 (  5392 PWs)   bands (ev):

   -79.3822 -79.3822 -79.3822 -79.3822 -46.2247 -46.2247 -46.2247 -46.2247
   -32.7757 -32.7757 -32.7757 -32.7757 -32.6240 -32.6240 -32.6240 -32.6240
    -6.1457  -6.1457  -6.1457  -6.1457  -5.2044  -5.2044  -5.2044  -5.2044
     4.8026   4.8026   4.8026   4.8026   6.0356   6.0356   6.0356   6.0356
     8.2570   8.2570   8.2570   8.2570   8.9603   8.9603   8.9603   8.9603
     9.1582   9.1582   9.1582   9.1582   9.7421   9.7421   9.7421   9.7421
    11.7991  11.7991  11.7991  11.7991  12.4778  12.4778  12.4778  12.4778
    13.6565  13.6565  13.6565  13.6565  16.6136  16.6136  16.6136  16.6136
    17.2101  17.2101  17.2101  17.2101  22.8446  22.8446

     occupation numbers 
     1.0000   1.0000   1.0000   1.0000   1.0000   1.0000   1.0000   1.0000
     1.0000   1.0000   1.0000   1.0000   1.0000   1.0000   1.0000   1.0000
     1.0000   1.0000   1.0000   1.0000   1.0000   1.0000   1.0000   1.0000
     1.0000   1.0000   1.0000   1.0000   1.0000   1.0000   1.0000   1.0000
     1.0000   1.0000   1.0000   1.0000   1.0000   1.0000   1.0000   1.0000
     1.0000   1.0000   1.0000   1.0000   1.0000   1.0000   1.0000   1.0000
     1.0000   1.0000   1.0000   1.0000   1.0000   1.0000   1.0000   1.0000
     1.0000   1.0000   1.0000   1.0000  -0.0000  -0.0000  -0.0000  -0.0000
    -0.0000  -0.0000  -0.0000  -0.0000  -0.0000  -0.0000

          k =-0.5000-0.5000 0.5699 (  5332 PWs)   bands (ev):

   -79.3809 -79.3809 -79.3809 -79.3809 -46.2309 -46.2309 -46.2309 -46.2309
   -32.8083 -32.8083 -32.8083 -32.8083 -32.6307 -32.6307 -32.6307 -32.6307
    -5.6966  -5.6966  -5.6966  -5.6966  -5.4527  -5.4527  -5.4527  -5.4527
     5.5822   5.5822   5.5822   5.5822   6.2002   6.2002   6.2002   6.2002
     6.8698   6.8698   6.8698   6.8698   8.3907   8.3907   8.3907   8.3907
     9.5451   9.5451   9.5451   9.5451  10.5149  10.5149  10.5149  10.5149
    11.9661  11.9661  11.9661  11.9661  12.7459  12.7459  12.7459  12.7459
    13.3640  13.3640  13.3640  13.3640  16.1755  16.1755  16.1755  16.1755
    17.0458  17.0458  17.0458  17.0458  23.0923  23.0923

     occupation numbers 
     1.0000   1.0000   1.0000   1.0000   1.0000   1.0000   1.0000   1.0000
     1.0000   1.0000   1.0000   1.0000   1.0000   1.0000   1.0000   1.0000
     1.0000   1.0000   1.0000   1.0000   1.0000   1.0000   1.0000   1.0000
     1.0000   1.0000   1.0000   1.0000   1.0000   1.0000   1.0000   1.0000
     1.0000   1.0000   1.0000   1.0000   1.0000   1.0000   1.0000   1.0000
     1.0000   1.0000   1.0000   1.0000   1.0000   1.0000   1.0000   1.0000
     1.0000   1.0000   1.0000   1.0000   1.0000   1.0000   1.0000   1.0000
     1.0000   1.0000   1.0000   1.0000  -0.0000  -0.0000  -0.0000  -0.0000
    -0.0000  -0.0000  -0.0000  -0.0000  -0.0000  -0.0000

     the Fermi energy is    13.8714 ev

!    total energy              =    -553.08030135 Ry
     estimated scf accuracy    <          3.6E-11 Ry
     smearing contrib. (-TS)   =      -0.00001462 Ry
     internal energy E=F+TS    =    -553.08028672 Ry

     The total energy is F=E-TS. E is the sum of the following terms:
     one-electron contribution =    -190.90945309 Ry
     hartree contribution      =     122.72933689 Ry
     xc contribution           =     -69.91416000 Ry
     ewald contribution        =    -414.98601052 Ry

     convergence has been achieved in  10 iterations

     Forces acting on atoms (cartesian axes, Ry/au):

     atom    1 type  2   force =     0.00000000    0.00000000    0.00000000
     atom    2 type  2   force =     0.00000000    0.00000000    0.00000000
     atom    3 type  1   force =     0.00023988   -0.00023988    0.00000000
     atom    4 type  1   force =    -0.00023988   -0.00023988    0.00000000
     atom    5 type  1   force =     0.00023988    0.00023988    0.00000000
     atom    6 type  1   force =    -0.00023988    0.00023988    0.00000000
     The non-local contrib.  to forces
     atom    1 type  2   force =     0.00000000    0.00000000    0.00000000
     atom    2 type  2   force =     0.00000000    0.00000000    0.00000000
     atom    3 type  1   force =    -0.05457260    0.05457260    0.00000000
     atom    4 type  1   force =     0.05457260    0.05457260   -0.00000000
     atom    5 type  1   force =    -0.05457260   -0.05457260   -0.00000000
     atom    6 type  1   force =     0.05457260   -0.05457260    0.00000000
     The ionic contribution  to forces
     atom    1 type  2   force =    -0.00000000   -0.00000000    0.00000000
     atom    2 type  2   force =     0.00000000    0.00000000   -0.00000000
     atom    3 type  1   force =     1.42937233   -1.42937233    0.00000000
     atom    4 type  1   force =    -1.42937233   -1.42937233   -0.00000000
     atom    5 type  1   force =     1.42937233    1.42937233   -0.00000000
     atom    6 type  1   force =    -1.42937233    1.42937233    0.00000000
     The local contribution  to forces
     atom    1 type  2   force =     0.00000000    0.00000000    0.00000000
     atom    2 type  2   force =     0.00000000    0.00000000    0.00000000
     atom    3 type  1   force =    -1.37455962    1.37455962    0.00000000
     atom    4 type  1   force =     1.37455962    1.37455962   -0.00000000
     atom    5 type  1   force =    -1.37455962   -1.37455962    0.00000000
     atom    6 type  1   force =     1.37455962   -1.37455962    0.00000000
     The core correction contribution to forces
     atom    1 type  2   force =     0.00000000    0.00000000    0.00000000
     atom    2 type  2   force =     0.00000000    0.00000000    0.00000000
     atom    3 type  1   force =     0.00000000    0.00000000    0.00000000
     atom    4 type  1   force =     0.00000000    0.00000000    0.00000000
     atom    5 type  1   force =     0.00000000    0.00000000    0.00000000
     atom    6 type  1   force =     0.00000000    0.00000000    0.00000000
     The Hubbard contrib.    to forces
     atom    1 type  2   force =     0.00000000    0.00000000    0.00000000
     atom    2 type  2   force =     0.00000000    0.00000000    0.00000000
     atom    3 type  1   force =     0.00000000    0.00000000    0.00000000
     atom    4 type  1   force =     0.00000000    0.00000000    0.00000000
     atom    5 type  1   force =     0.00000000    0.00000000    0.00000000
     atom    6 type  1   force =     0.00000000    0.00000000    0.00000000
     The SCF correction term to forces
     atom    1 type  2   force =     0.00000000    0.00000000   -0.00000000
     atom    2 type  2   force =     0.00000000    0.00000000    0.00000000
     atom    3 type  1   force =    -0.00000023    0.00000023   -0.00000000
     atom    4 type  1   force =     0.00000023    0.00000023    0.00000000
     atom    5 type  1   force =    -0.00000023   -0.00000023    0.00000000
     atom    6 type  1   force =     0.00000023   -0.00000023   -0.00000000

     Total force =     0.000678     Total SCF correction =     0.000001


     Computing stress (Cartesian axis) and pressure

          total   stress  (Ry/bohr**3)                   (kbar)     P=      -21.03
  -0.00012289   0.00000000   0.00000000          -18.08        0.00        0.00
   0.00000000  -0.00012289   0.00000000            0.00      -18.08        0.00
   0.00000000   0.00000000  -0.00018310            0.00        0.00      -26.94

     kinetic stress (kbar)  48457.25      0.00      0.00
                                0.00  48457.25      0.00
                                0.00      0.00  47517.53

     local   stress (kbar) -12691.13     -0.00     -0.00
                               -0.00 -12691.13     -0.00
                               -0.00     -0.00 -44390.40

     nonloc. stress (kbar)  14528.65      0.00      0.00
                                0.00  14528.65      0.00
                                0.00      0.00  14740.20

     hartree stress (kbar)   9611.49     -0.00      0.00
                               -0.00   9611.49      0.00
                                0.00      0.00  21376.62

     exc-cor stress (kbar)  -7288.12     -0.00      0.00
                               -0.00  -7288.12     -0.00
                                0.00     -0.00  -7263.44

     corecor stress (kbar)      0.00      0.00      0.00
                                0.00      0.00      0.00
                                0.00      0.00      0.00

     ewald   stress (kbar) -52636.21     -0.00     -0.00
                               -0.00 -52636.21     -0.00
                               -0.00     -0.00 -32007.45

     hubbard stress (kbar)      0.00      0.00      0.00
                                0.00      0.00      0.00
                                0.00      0.00      0.00

     DFT-D   stress (kbar)      0.00      0.00      0.00
                                0.00      0.00      0.00
                                0.00      0.00      0.00

     XDM     stress (kbar)      0.00      0.00      0.00
                                0.00      0.00      0.00
                                0.00      0.00      0.00

     dft-nl  stress (kbar)      0.00      0.00      0.00
                                0.00      0.00      0.00
                                0.00      0.00      0.00

     TS-vdW  stress (kbar)      0.00      0.00      0.00
                                0.00      0.00      0.00
                                0.00      0.00      0.00


                                0.00      0.00      0.00
                                0.00      0.00      0.00


                                0.00      0.00      0.00


     Writing all to output data dir tmp/espresso.save/
 
     init_run     :      6.32s CPU      3.28s WALL (       1 calls)
     electrons    :    213.01s CPU    109.11s WALL (       1 calls)
     forces       :     11.20s CPU      5.73s WALL (       1 calls)
     stress       :     16.32s CPU      8.25s WALL (       1 calls)

     Called by init_run:
     wfcinit      :      6.25s CPU      3.22s WALL (       1 calls)
     wfcinit:atom :      0.02s CPU      0.01s WALL (      63 calls)
     wfcinit:wfcr :      6.07s CPU      3.13s WALL (      63 calls)
     potinit      :      0.02s CPU      0.01s WALL (       1 calls)
     hinit0       :      0.04s CPU      0.03s WALL (       1 calls)

     Called by electrons:
     c_bands      :    195.08s CPU     99.88s WALL (      10 calls)
     sum_band     :     17.76s CPU      9.11s WALL (      10 calls)
     v_of_rho     :      0.05s CPU      0.03s WALL (      11 calls)
     v_h          :      0.01s CPU      0.00s WALL (      11 calls)
     v_xc         :      0.04s CPU      0.02s WALL (      11 calls)
     mix_rho      :      0.05s CPU      0.02s WALL (      10 calls)

     Called by c_bands:
     init_us_2    :      0.56s CPU      0.30s WALL (    1449 calls)
     init_us_2:cp :      0.55s CPU      0.29s WALL (    1449 calls)
     cegterg      :    179.90s CPU     92.14s WALL (     630 calls)

     Called by sum_band:
     sum_band:wei :      0.10s CPU      0.05s WALL (      10 calls)
     sum_band:loo :     17.63s CPU      9.05s WALL (      10 calls)
     sum_band:buf :      0.10s CPU      0.05s WALL (     630 calls)
     sum_band:ini :      0.19s CPU      0.10s WALL (     630 calls)

     Called by *egterg:
     cdiaghg      :     25.31s CPU     12.87s WALL (    2042 calls)
     cegterg:over :     11.20s CPU      5.70s WALL (    1412 calls)
     cegterg:upda :      8.85s CPU      4.51s WALL (    1412 calls)
     cegterg:last :     15.60s CPU      7.93s WALL (    1260 calls)
     cdiaghg:chol :      1.18s CPU      0.60s WALL (    2042 calls)
     cdiaghg:inve :      0.18s CPU      0.09s WALL (    2042 calls)
     cdiaghg:para :      2.65s CPU      1.35s WALL (    4084 calls)
     h_psi        :    120.34s CPU     61.86s WALL (    2105 calls)
     g_psi        :      0.18s CPU      0.09s WALL (    1412 calls)

     Called by h_psi:
     h_psi:calbec :     14.48s CPU      7.59s WALL (    2105 calls)
     vloc_psi     :     84.53s CPU     43.43s WALL (    2105 calls)
     add_vuspsi   :     21.06s CPU     10.71s WALL (    2105 calls)

     General routines
     calbec       :     19.57s CPU     10.21s WALL (    2420 calls)
     fft          :      0.06s CPU      0.03s WALL (     150 calls)
     ffts         :      0.01s CPU      0.01s WALL (      40 calls)
     fftw         :     95.66s CPU     49.14s WALL (  542176 calls)
 
     Parallel routines
 
     PWSCF        :   4m14.15s CPU   2m13.10s WALL

 
   This run was terminated on:  10:18:46  10Apr2022            

=------------------------------------------------------------------------------=
   JOB DONE.
=------------------------------------------------------------------------------=
