
     Program PWSCF v.7.0 starts on 10Apr2022 at 10:12:12 

     This program is part of the open-source Quantum ESPRESSO suite
     for quantum simulation of materials; please cite
         "P. Giannozzi et al., J. Phys.:Condens. Matter 21 395502 (2009);
         "P. Giannozzi et al., J. Phys.:Condens. Matter 29 465901 (2017);
         "P. Giannozzi et al., J. Chem. Phys. 152 154105 (2020);
          URL http://www.quantum-espresso.org", 
     in publications or presentations arising from this work. More details at
     http://www.quantum-espresso.org/quote

     Parallel version (MPI & OpenMP), running on      64 processor cores
     Number of MPI processes:                32
     Threads/MPI process:                     2

     MPI processes distributed on     1 nodes
     R & G space division:  proc/nbgrp/npool/nimage =      32
     230902 MiB available memory on the printing compute node when the environment starts
 
     Reading input from kpoints_775.pwi
Warning: card &CELL ignored
Warning: card / ignored

     Current dimensions of program PWSCF are:
     Max number of different atomic species (ntypx) = 10
     Max number of k-points (npk) =  40000
     Max angular momentum in pseudopotentials (lmaxx) =  4

     Subspace diagonalization in iterative solution of the eigenvalue problem:
     one sub-group per band group will be used
     scalapack distributed-memory algorithm (size of sub-group:  5*  5 procs)

 
     Parallelization info
     --------------------
     sticks:   dense  smooth     PW     G-vecs:    dense   smooth      PW
     Min          58      58     16                 1342     1342     203
     Max          59      59     18                 1345     1345     205
     Sum        1885    1885    545                42999    42999    6523
 
     Using Slab Decomposition
 

     Title: 
     IrO2 Unit Cell                                                             


     bravais-lattice index     =            6
     lattice parameter (alat)  =       8.5888  a.u.
     unit-cell volume          =     444.6868 (a.u.)^3
     number of atoms/cell      =            6
     number of atomic types    =            2
     number of electrons       =        58.00
     number of Kohn-Sham states=           70
     kinetic-energy cutoff     =      80.0000  Ry
     charge density cutoff     =     320.0000  Ry
     scf convergence threshold =      1.0E-09
     mixing beta               =       0.7000
     number of iterations used =            8  plain     mixing
     Exchange-correlation= PBE
                           (   1   4   3   4   0   0   0)
     Non magnetic calculation with spin-orbit


     celldm(1)=   8.588800  celldm(2)=   0.000000  celldm(3)=   0.701870
     celldm(4)=   0.000000  celldm(5)=   0.000000  celldm(6)=   0.000000

     crystal axes: (cart. coord. in units of alat)
               a(1) = (   1.000000   0.000000   0.000000 )  
               a(2) = (   0.000000   1.000000   0.000000 )  
               a(3) = (   0.000000   0.000000   0.701870 )  

     reciprocal axes: (cart. coord. in units 2 pi/alat)
               b(1) = (  1.000000  0.000000  0.000000 )  
               b(2) = (  0.000000  1.000000  0.000000 )  
               b(3) = (  0.000000  0.000000  1.424765 )  


     PseudoPot. # 1 for O  read from file:
     ../../XX_PSEUDO/O_ONCV_PBE_fr.upf
     MD5 check sum: 59c925217d3b58c6d762355590b68b09
     Pseudo is Norm-conserving, Zval =  6.0
     Generated using ONCVPSP code by D. R. Hamann
     Using radial grid of  936 points,  6 beta functions with: 
                l(1) =   0
                l(2) =   0
                l(3) =   1
                l(4) =   1
                l(5) =   1
                l(6) =   1

     PseudoPot. # 2 for Ir read from file:
     ../../XX_PSEUDO/Ir_ONCV_PBE_fr.upf
     MD5 check sum: 924e909c4146afa09f62ee3401806954
     Pseudo is Norm-conserving, Zval = 17.0
     Generated using ONCVPSP code by D. R. Hamann
     Using radial grid of 1310 points, 14 beta functions with: 
                l(1) =   0
                l(2) =   0
                l(3) =   1
                l(4) =   1
                l(5) =   1
                l(6) =   1
                l(7) =   2
                l(8) =   2
                l(9) =   2
               l(10) =   2
               l(11) =   3
               l(12) =   3
               l(13) =   3
               l(14) =   3

     atomic species   valence    mass     pseudopotential
        O              6.00    15.99900     O ( 1.00)
        Ir            17.00   192.21700     Ir( 1.00)

     16 Sym. Ops., with inversion, found ( 8 have fractional translation)


                                    s                        frac. trans.

      isym =  1     identity                                     

 cryst.   s( 1) = (     1          0          0      )
                  (     0          1          0      )
                  (     0          0          1      )

 cart.    s( 1) = (  1.0000000  0.0000000  0.0000000 )
                  (  0.0000000  1.0000000  0.0000000 )
                  (  0.0000000  0.0000000  1.0000000 )


      isym =  2     180 deg rotation - cart. axis [0,0,1]        

 cryst.   s( 2) = (    -1          0          0      )
                  (     0         -1          0      )
                  (     0          0          1      )

 cart.    s( 2) = ( -1.0000000  0.0000000  0.0000000 )
                  (  0.0000000 -1.0000000  0.0000000 )
                  (  0.0000000  0.0000000  1.0000000 )


      isym =  3     180 deg rotation - cart. axis [0,1,0]        

 cryst.   s( 3) = (    -1          0          0      )    f =(  0.5000000 )
                  (     0          1          0      )       ( -0.5000000 )
                  (     0          0         -1      )       (  0.5000000 )

 cart.    s( 3) = ( -1.0000000  0.0000000  0.0000000 )    f =(  0.5000000 )
                  (  0.0000000  1.0000000  0.0000000 )       ( -0.5000000 )
                  (  0.0000000  0.0000000 -1.0000000 )       (  0.3509351 )


      isym =  4     180 deg rotation - cart. axis [1,0,0]        

 cryst.   s( 4) = (     1          0          0      )    f =( -0.5000000 )
                  (     0         -1          0      )       (  0.5000000 )
                  (     0          0         -1      )       (  0.5000000 )

 cart.    s( 4) = (  1.0000000  0.0000000  0.0000000 )    f =( -0.5000000 )
                  (  0.0000000 -1.0000000  0.0000000 )       (  0.5000000 )
                  (  0.0000000  0.0000000 -1.0000000 )       (  0.3509351 )


      isym =  5     180 deg rotation - cart. axis [1,1,0]        

 cryst.   s( 5) = (     0          1          0      )
                  (     1          0          0      )
                  (     0          0         -1      )

 cart.    s( 5) = (  0.0000000  1.0000000  0.0000000 )
                  (  1.0000000  0.0000000  0.0000000 )
                  (  0.0000000  0.0000000 -1.0000000 )


      isym =  6     180 deg rotation - cart. axis [1,-1,0]       

 cryst.   s( 6) = (     0         -1          0      )
                  (    -1          0          0      )
                  (     0          0         -1      )

 cart.    s( 6) = (  0.0000000 -1.0000000  0.0000000 )
                  ( -1.0000000  0.0000000  0.0000000 )
                  (  0.0000000  0.0000000 -1.0000000 )


      isym =  7      90 deg rotation - cart. axis [0,0,-1]       

 cryst.   s( 7) = (     0         -1          0      )    f =( -0.5000000 )
                  (     1          0          0      )       (  0.5000000 )
                  (     0          0          1      )       ( -0.5000000 )

 cart.    s( 7) = (  0.0000000  1.0000000  0.0000000 )    f =( -0.5000000 )
                  ( -1.0000000  0.0000000  0.0000000 )       (  0.5000000 )
                  (  0.0000000  0.0000000  1.0000000 )       ( -0.3509351 )


      isym =  8      90 deg rotation - cart. axis [0,0,1]        

 cryst.   s( 8) = (     0          1          0      )    f =(  0.5000000 )
                  (    -1          0          0      )       ( -0.5000000 )
                  (     0          0          1      )       ( -0.5000000 )

 cart.    s( 8) = (  0.0000000 -1.0000000  0.0000000 )    f =(  0.5000000 )
                  (  1.0000000  0.0000000  0.0000000 )       ( -0.5000000 )
                  (  0.0000000  0.0000000  1.0000000 )       ( -0.3509351 )


      isym =  9     inversion                                    

 cryst.   s( 9) = (    -1          0          0      )
                  (     0         -1          0      )
                  (     0          0         -1      )

 cart.    s( 9) = ( -1.0000000  0.0000000  0.0000000 )
                  (  0.0000000 -1.0000000  0.0000000 )
                  (  0.0000000  0.0000000 -1.0000000 )


      isym = 10     inv. 180 deg rotation - cart. axis [0,0,1]   

 cryst.   s(10) = (     1          0          0      )
                  (     0          1          0      )
                  (     0          0         -1      )

 cart.    s(10) = (  1.0000000  0.0000000  0.0000000 )
                  (  0.0000000  1.0000000  0.0000000 )
                  (  0.0000000  0.0000000 -1.0000000 )


      isym = 11     inv. 180 deg rotation - cart. axis [0,1,0]   

 cryst.   s(11) = (     1          0          0      )    f =( -0.5000000 )
                  (     0         -1          0      )       (  0.5000000 )
                  (     0          0          1      )       ( -0.5000000 )

 cart.    s(11) = (  1.0000000  0.0000000  0.0000000 )    f =( -0.5000000 )
                  (  0.0000000 -1.0000000  0.0000000 )       (  0.5000000 )
                  (  0.0000000  0.0000000  1.0000000 )       ( -0.3509351 )


      isym = 12     inv. 180 deg rotation - cart. axis [1,0,0]   

 cryst.   s(12) = (    -1          0          0      )    f =(  0.5000000 )
                  (     0          1          0      )       ( -0.5000000 )
                  (     0          0          1      )       ( -0.5000000 )

 cart.    s(12) = ( -1.0000000  0.0000000  0.0000000 )    f =(  0.5000000 )
                  (  0.0000000  1.0000000  0.0000000 )       ( -0.5000000 )
                  (  0.0000000  0.0000000  1.0000000 )       ( -0.3509351 )


      isym = 13     inv. 180 deg rotation - cart. axis [1,1,0]   

 cryst.   s(13) = (     0         -1          0      )
                  (    -1          0          0      )
                  (     0          0          1      )

 cart.    s(13) = (  0.0000000 -1.0000000  0.0000000 )
                  ( -1.0000000  0.0000000  0.0000000 )
                  (  0.0000000  0.0000000  1.0000000 )


      isym = 14     inv. 180 deg rotation - cart. axis [1,-1,0]  

 cryst.   s(14) = (     0          1          0      )
                  (     1          0          0      )
                  (     0          0          1      )

 cart.    s(14) = (  0.0000000  1.0000000  0.0000000 )
                  (  1.0000000  0.0000000  0.0000000 )
                  (  0.0000000  0.0000000  1.0000000 )


      isym = 15     inv.  90 deg rotation - cart. axis [0,0,-1]  

 cryst.   s(15) = (     0          1          0      )    f =(  0.5000000 )
                  (    -1          0          0      )       ( -0.5000000 )
                  (     0          0         -1      )       (  0.5000000 )

 cart.    s(15) = (  0.0000000 -1.0000000  0.0000000 )    f =(  0.5000000 )
                  (  1.0000000  0.0000000  0.0000000 )       ( -0.5000000 )
                  (  0.0000000  0.0000000 -1.0000000 )       (  0.3509351 )


      isym = 16     inv.  90 deg rotation - cart. axis [0,0,1]   

 cryst.   s(16) = (     0         -1          0      )    f =( -0.5000000 )
                  (     1          0          0      )       (  0.5000000 )
                  (     0          0         -1      )       (  0.5000000 )

 cart.    s(16) = (  0.0000000  1.0000000  0.0000000 )    f =( -0.5000000 )
                  ( -1.0000000  0.0000000  0.0000000 )       (  0.5000000 )
                  (  0.0000000  0.0000000 -1.0000000 )       (  0.3509351 )


     double point group D_4h(4/mmm)
     there are 14 classes and  4 irreducible representations
     the character table:

       E     -E    2C4   -2C4   C2    2C2' 2C2'' i     -i    2S4   -2S4   s_h 
                               -C2   -2C2' -2C2'                         -s_h 
G_6+   2.00 -2.00  1.41 -1.41  0.00  0.00  0.00  2.00 -2.00  1.41 -1.41  0.00
G_7+   2.00 -2.00 -1.41  1.41  0.00  0.00  0.00  2.00 -2.00 -1.41  1.41  0.00
G_6-   2.00 -2.00  1.41 -1.41  0.00  0.00  0.00 -2.00  2.00 -1.41  1.41  0.00
G_7-   2.00 -2.00 -1.41  1.41  0.00  0.00  0.00 -2.00  2.00  1.41 -1.41  0.00

        2s_v  2s_d
       -2s_v -2s_d
G_6+   0.00  0.00
G_7+   0.00  0.00
G_6-   0.00  0.00
G_7-   0.00  0.00

     the symmetry operations in each class and the name of the first element:

     E             1
          identity                                               
     -E           -1
          identity E                                             
     2C4           7    8
           90 deg rotation - cart. axis [0,0,-1]                 
     -2C4         -7   -8
           90 deg rotation - cart. axis [0,0,-1] E               
      C2  -C2      2   -2
          180 deg rotation - cart. axis [0,0,1]                  
      2C2'-2C2'    3   -3    4   -4
          180 deg rotation - cart. axis [0,1,0]                  
     2C2''-2C2'    5   -5   -6    6
          180 deg rotation - cart. axis [1,1,0]                  
     i             9
          inversion                                              
     -i           -9
          inversion E                                            
     2S4          15   16
          inv.  90 deg rotation - cart. axis [0,0,-1]            
     -2S4        -15  -16
          inv.  90 deg rotation - cart. axis [0,0,-1] E          
      s_h -s_h    10  -10
          inv. 180 deg rotation - cart. axis [0,0,1]             
      2s_v-2s_v   11  -11   12  -12
          inv. 180 deg rotation - cart. axis [0,1,0]             
      2s_d-2s_d   13  -13  -14   14
          inv. 180 deg rotation - cart. axis [1,1,0]             

   Cartesian axes

     site n.     atom                  positions (alat units)
         1           Ir  tau(   1) = (   0.0000000   0.0000000   0.0000000  )
         2           Ir  tau(   2) = (   0.5000000   0.5000000   0.3509351  )
         3           O   tau(   3) = (   0.1916000   0.8084000   0.3509351  )
         4           O   tau(   4) = (   0.3084000   0.3084000   0.0000000  )
         5           O   tau(   5) = (   0.6916000   0.6916000   0.0000000  )
         6           O   tau(   6) = (   0.8084000   0.1916000   0.3509351  )

   Crystallographic axes

     site n.     atom                  positions (cryst. coord.)
         1           Ir  tau(   1) = (  0.0000000  0.0000000  0.0000000  )
         2           Ir  tau(   2) = (  0.5000000  0.5000000  0.5000000  )
         3           O   tau(   3) = (  0.1916000  0.8084000  0.5000000  )
         4           O   tau(   4) = (  0.3084000  0.3084000  0.0000000  )
         5           O   tau(   5) = (  0.6916000  0.6916000  0.0000000  )
         6           O   tau(   6) = (  0.8084000  0.1916000  0.5000000  )

     number of k points=    30  Methfessel-Paxton smearing, width (Ry)=  0.0050
                       cart. coord. in units 2pi/alat
        k(    1) = (   0.0000000   0.0000000   0.0000000), wk =   0.0040816
        k(    2) = (   0.0000000   0.0000000   0.2849530), wk =   0.0081633
        k(    3) = (   0.0000000   0.0000000   0.5699060), wk =   0.0081633
        k(    4) = (   0.0000000   0.1428571   0.0000000), wk =   0.0163265
        k(    5) = (   0.0000000   0.1428571   0.2849530), wk =   0.0326531
        k(    6) = (   0.0000000   0.1428571   0.5699060), wk =   0.0326531
        k(    7) = (   0.0000000   0.2857143   0.0000000), wk =   0.0163265
        k(    8) = (   0.0000000   0.2857143   0.2849530), wk =   0.0326531
        k(    9) = (   0.0000000   0.2857143   0.5699060), wk =   0.0326531
        k(   10) = (   0.0000000   0.4285714   0.0000000), wk =   0.0163265
        k(   11) = (   0.0000000   0.4285714   0.2849530), wk =   0.0326531
        k(   12) = (   0.0000000   0.4285714   0.5699060), wk =   0.0326531
        k(   13) = (   0.1428571   0.1428571   0.0000000), wk =   0.0163265
        k(   14) = (   0.1428571   0.1428571   0.2849530), wk =   0.0326531
        k(   15) = (   0.1428571   0.1428571   0.5699060), wk =   0.0326531
        k(   16) = (   0.1428571   0.2857143   0.0000000), wk =   0.0326531
        k(   17) = (   0.1428571   0.2857143   0.2849530), wk =   0.0653061
        k(   18) = (   0.1428571   0.2857143   0.5699060), wk =   0.0653061
        k(   19) = (   0.1428571   0.4285714   0.0000000), wk =   0.0326531
        k(   20) = (   0.1428571   0.4285714   0.2849530), wk =   0.0653061
        k(   21) = (   0.1428571   0.4285714   0.5699060), wk =   0.0653061
        k(   22) = (   0.2857143   0.2857143   0.0000000), wk =   0.0163265
        k(   23) = (   0.2857143   0.2857143   0.2849530), wk =   0.0326531
        k(   24) = (   0.2857143   0.2857143   0.5699060), wk =   0.0326531
        k(   25) = (   0.2857143   0.4285714   0.0000000), wk =   0.0326531
        k(   26) = (   0.2857143   0.4285714   0.2849530), wk =   0.0653061
        k(   27) = (   0.2857143   0.4285714   0.5699060), wk =   0.0653061
        k(   28) = (   0.4285714   0.4285714   0.0000000), wk =   0.0163265
        k(   29) = (   0.4285714   0.4285714   0.2849530), wk =   0.0326531
        k(   30) = (   0.4285714   0.4285714   0.5699060), wk =   0.0326531

                       cryst. coord.
        k(    1) = (   0.0000000   0.0000000   0.0000000), wk =   0.0040816
        k(    2) = (   0.0000000   0.0000000   0.2000000), wk =   0.0081633
        k(    3) = (   0.0000000   0.0000000   0.4000000), wk =   0.0081633
        k(    4) = (   0.0000000   0.1428571   0.0000000), wk =   0.0163265
        k(    5) = (   0.0000000   0.1428571   0.2000000), wk =   0.0326531
        k(    6) = (   0.0000000   0.1428571   0.4000000), wk =   0.0326531
        k(    7) = (   0.0000000   0.2857143   0.0000000), wk =   0.0163265
        k(    8) = (   0.0000000   0.2857143   0.2000000), wk =   0.0326531
        k(    9) = (   0.0000000   0.2857143   0.4000000), wk =   0.0326531
        k(   10) = (   0.0000000   0.4285714   0.0000000), wk =   0.0163265
        k(   11) = (   0.0000000   0.4285714   0.2000000), wk =   0.0326531
        k(   12) = (   0.0000000   0.4285714   0.4000000), wk =   0.0326531
        k(   13) = (   0.1428571   0.1428571   0.0000000), wk =   0.0163265
        k(   14) = (   0.1428571   0.1428571   0.2000000), wk =   0.0326531
        k(   15) = (   0.1428571   0.1428571   0.4000000), wk =   0.0326531
        k(   16) = (   0.1428571   0.2857143   0.0000000), wk =   0.0326531
        k(   17) = (   0.1428571   0.2857143   0.2000000), wk =   0.0653061
        k(   18) = (   0.1428571   0.2857143   0.4000000), wk =   0.0653061
        k(   19) = (   0.1428571   0.4285714   0.0000000), wk =   0.0326531
        k(   20) = (   0.1428571   0.4285714   0.2000000), wk =   0.0653061
        k(   21) = (   0.1428571   0.4285714   0.4000000), wk =   0.0653061
        k(   22) = (   0.2857143   0.2857143   0.0000000), wk =   0.0163265
        k(   23) = (   0.2857143   0.2857143   0.2000000), wk =   0.0326531
        k(   24) = (   0.2857143   0.2857143   0.4000000), wk =   0.0326531
        k(   25) = (   0.2857143   0.4285714   0.0000000), wk =   0.0326531
        k(   26) = (   0.2857143   0.4285714   0.2000000), wk =   0.0653061
        k(   27) = (   0.2857143   0.4285714   0.4000000), wk =   0.0653061
        k(   28) = (   0.4285714   0.4285714   0.0000000), wk =   0.0163265
        k(   29) = (   0.4285714   0.4285714   0.2000000), wk =   0.0326531
        k(   30) = (   0.4285714   0.4285714   0.4000000), wk =   0.0326531

     Dense  grid:    42999 G-vectors     FFT dimensions: (  50,  50,  36)

     Dynamical RAM for                 wfc:       0.36 MB

     Dynamical RAM for     wfc (w. buffer):      11.06 MB

     Dynamical RAM for           str. fact:       0.04 MB

     Dynamical RAM for           local pot:       0.00 MB

     Dynamical RAM for          nlocal pot:       0.46 MB

     Dynamical RAM for                qrad:      20.10 MB

     Dynamical RAM for          rho,v,vnew:       0.70 MB

     Dynamical RAM for               rhoin:       0.23 MB

     Dynamical RAM for            rho*nmix:       1.31 MB

     Dynamical RAM for           G-vectors:       0.09 MB

     Dynamical RAM for          h,s,v(r/c):       0.04 MB

     Dynamical RAM for          <psi|beta>:       0.38 MB

     Dynamical RAM for                 psi:       0.71 MB

     Dynamical RAM for                hpsi:       0.71 MB

     Dynamical RAM for      wfcinit/wfcrot:       0.67 MB

     Estimated static dynamical RAM per process >      33.05 MB

     Estimated max dynamical RAM per process >      36.21 MB

     Estimated total dynamical RAM >       1.13 GB

     Initial potential from superposition of free atoms

     starting charge      57.9997, renormalised to      58.0000
     Starting wfcs are   72 randomized atomic wfcs

     total cpu time spent up to now is        1.7 secs

     Self-consistent Calculation

     iteration #  1     ecut=    80.00 Ry     beta= 0.70
     Davidson diagonalization with overlap

---- Real-time Memory Report at c_bands before calling an iterative solver
            85 MiB given to the printing process from OS
             0 MiB allocation reported by mallinfo(arena+hblkhd)
        229230 MiB available memory on the node where the printing process lives
------------------
     ethr =  1.00E-02,  avg # of iterations =  2.7

     total cpu time spent up to now is        6.9 secs

     total energy              =    -552.42733017 Ry
     estimated scf accuracy    <       1.21406072 Ry

     iteration #  2     ecut=    80.00 Ry     beta= 0.70
     Davidson diagonalization with overlap

---- Real-time Memory Report at c_bands before calling an iterative solver
            91 MiB given to the printing process from OS
             0 MiB allocation reported by mallinfo(arena+hblkhd)
        229065 MiB available memory on the node where the printing process lives
------------------
     ethr =  2.09E-03,  avg # of iterations =  2.0

     total cpu time spent up to now is       12.5 secs

     total energy              =    -552.27925440 Ry
     estimated scf accuracy    <       4.29095567 Ry

     iteration #  3     ecut=    80.00 Ry     beta= 0.70
     Davidson diagonalization with overlap

---- Real-time Memory Report at c_bands before calling an iterative solver
            95 MiB given to the printing process from OS
             0 MiB allocation reported by mallinfo(arena+hblkhd)
        229015 MiB available memory on the node where the printing process lives
------------------
     ethr =  2.09E-03,  avg # of iterations =  2.0

     total cpu time spent up to now is       17.8 secs

     total energy              =    -553.07582288 Ry
     estimated scf accuracy    <       0.03399414 Ry

     iteration #  4     ecut=    80.00 Ry     beta= 0.70
     Davidson diagonalization with overlap

---- Real-time Memory Report at c_bands before calling an iterative solver
            96 MiB given to the printing process from OS
             0 MiB allocation reported by mallinfo(arena+hblkhd)
        228999 MiB available memory on the node where the printing process lives
------------------
     ethr =  5.86E-05,  avg # of iterations =  2.4

     total cpu time spent up to now is       23.1 secs

     total energy              =    -553.07944586 Ry
     estimated scf accuracy    <       0.00490591 Ry

     iteration #  5     ecut=    80.00 Ry     beta= 0.70
     Davidson diagonalization with overlap

---- Real-time Memory Report at c_bands before calling an iterative solver
            96 MiB given to the printing process from OS
             0 MiB allocation reported by mallinfo(arena+hblkhd)
        228992 MiB available memory on the node where the printing process lives
------------------
     ethr =  8.46E-06,  avg # of iterations =  2.2

     total cpu time spent up to now is       27.9 secs

     total energy              =    -553.08030366 Ry
     estimated scf accuracy    <       0.00026736 Ry

     iteration #  6     ecut=    80.00 Ry     beta= 0.70
     Davidson diagonalization with overlap

---- Real-time Memory Report at c_bands before calling an iterative solver
            97 MiB given to the printing process from OS
             0 MiB allocation reported by mallinfo(arena+hblkhd)
        228990 MiB available memory on the node where the printing process lives
------------------
     ethr =  4.61E-07,  avg # of iterations =  2.2

     total cpu time spent up to now is       32.6 secs

     total energy              =    -553.08033815 Ry
     estimated scf accuracy    <       0.00000979 Ry

     iteration #  7     ecut=    80.00 Ry     beta= 0.70
     Davidson diagonalization with overlap

---- Real-time Memory Report at c_bands before calling an iterative solver
            97 MiB given to the printing process from OS
             0 MiB allocation reported by mallinfo(arena+hblkhd)
        228986 MiB available memory on the node where the printing process lives
------------------
     ethr =  1.69E-08,  avg # of iterations =  2.0

     total cpu time spent up to now is       38.1 secs

     total energy              =    -553.08034138 Ry
     estimated scf accuracy    <       0.00000055 Ry

     iteration #  8     ecut=    80.00 Ry     beta= 0.70
     Davidson diagonalization with overlap

---- Real-time Memory Report at c_bands before calling an iterative solver
            99 MiB given to the printing process from OS
             0 MiB allocation reported by mallinfo(arena+hblkhd)
        228945 MiB available memory on the node where the printing process lives
------------------
     ethr =  9.55E-10,  avg # of iterations =  2.1

     total cpu time spent up to now is       42.9 secs

     total energy              =    -553.08034142 Ry
     estimated scf accuracy    <       0.00000007 Ry

     iteration #  9     ecut=    80.00 Ry     beta= 0.70
     Davidson diagonalization with overlap

---- Real-time Memory Report at c_bands before calling an iterative solver
            99 MiB given to the printing process from OS
             0 MiB allocation reported by mallinfo(arena+hblkhd)
        228952 MiB available memory on the node where the printing process lives
------------------
     ethr =  1.18E-10,  avg # of iterations =  2.0

     total cpu time spent up to now is       48.1 secs

     total energy              =    -553.08034143 Ry
     estimated scf accuracy    <          3.7E-09 Ry

     iteration # 10     ecut=    80.00 Ry     beta= 0.70
     Davidson diagonalization with overlap

---- Real-time Memory Report at c_bands before calling an iterative solver
           100 MiB given to the printing process from OS
             0 MiB allocation reported by mallinfo(arena+hblkhd)
        228939 MiB available memory on the node where the printing process lives
------------------
     ethr =  6.40E-12,  avg # of iterations =  2.1

     total cpu time spent up to now is       53.4 secs

     End of self-consistent calculation

          k = 0.0000 0.0000 0.0000 (  5409 PWs)   bands (ev):

   -79.3847 -79.3847 -79.3834 -79.3834 -46.2271 -46.2271 -46.2164 -46.2164
   -32.7663 -32.7663 -32.7565 -32.7565 -32.6223 -32.6223 -32.6070 -32.6070
    -7.0748  -7.0748  -5.9191  -5.9191  -5.0040  -5.0040  -4.8025  -4.8025
     4.2680   4.2680   4.5148   4.5148   6.0325   6.0325   6.1439   6.1439
     6.2590   6.2590   8.7853   8.7853   8.9375   8.9375   9.1951   9.1951
    10.3323  10.3323  10.9878  10.9878  10.9891  10.9891  11.0303  11.0303
    11.2051  11.2051  11.3872  11.3872  11.6464  11.6464  11.6712  11.6712
    12.0583  12.0583  14.6450  14.6450  15.0732  15.0732  17.6878  17.6878
    17.8965  17.8965  18.0448  18.0448  19.4464  19.4464

     occupation numbers 
     1.0000   1.0000   1.0000   1.0000   1.0000   1.0000   1.0000   1.0000
     1.0000   1.0000   1.0000   1.0000   1.0000   1.0000   1.0000   1.0000
     1.0000   1.0000   1.0000   1.0000   1.0000   1.0000   1.0000   1.0000
     1.0000   1.0000   1.0000   1.0000   1.0000   1.0000   1.0000   1.0000
     1.0000   1.0000   1.0000   1.0000   1.0000   1.0000   1.0000   1.0000
     1.0000   1.0000   1.0000   1.0000   1.0000   1.0000   1.0000   1.0000
     1.0000   1.0000   1.0000   1.0000   1.0000   1.0000   1.0000   1.0000
     1.0000   1.0000  -0.0000  -0.0000  -0.0000  -0.0000  -0.0000  -0.0000
    -0.0000  -0.0000  -0.0000  -0.0000  -0.0000  -0.0000

          k = 0.0000 0.0000 0.2850 (  5373 PWs)   bands (ev):

   -79.3838 -79.3838 -79.3828 -79.3828 -46.2299 -46.2299 -46.2213 -46.2213
   -32.7769 -32.7769 -32.7767 -32.7767 -32.6343 -32.6343 -32.6136 -32.6136
    -6.7302  -6.7302  -5.7546  -5.7546  -5.1559  -5.1559  -5.0090  -5.0090
     4.7777   4.7777   4.8734   4.8734   6.3275   6.3275   6.3572   6.3572
     6.6439   6.6439   7.6453   7.6453   8.7332   8.7332   9.3126   9.3126
     9.3268   9.3268   9.6814   9.6814   9.7465   9.7465  10.9215  10.9215
    11.7538  11.7538  11.8122  11.8122  12.0433  12.0433  12.8727  12.8727
    12.8988  12.8988  14.7087  14.7087  15.3744  15.3744  16.9195  16.9195
    17.2191  17.2191  18.3295  18.3295  19.3513  19.3513

     occupation numbers 
     1.0000   1.0000   1.0000   1.0000   1.0000   1.0000   1.0000   1.0000
     1.0000   1.0000   1.0000   1.0000   1.0000   1.0000   1.0000   1.0000
     1.0000   1.0000   1.0000   1.0000   1.0000   1.0000   1.0000   1.0000
     1.0000   1.0000   1.0000   1.0000   1.0000   1.0000   1.0000   1.0000
     1.0000   1.0000   1.0000   1.0000   1.0000   1.0000   1.0000   1.0000
     1.0000   1.0000   1.0000   1.0000   1.0000   1.0000   1.0000   1.0000
     1.0000   1.0000   1.0000   1.0000   1.0000   1.0000   1.0000   1.0000
     1.0000   1.0000  -0.0000  -0.0000  -0.0000  -0.0000  -0.0000  -0.0000
    -0.0000  -0.0000  -0.0000  -0.0000  -0.0000  -0.0000

          k = 0.0000 0.0000 0.5699 (  5405 PWs)   bands (ev):

   -79.3822 -79.3822 -79.3818 -79.3818 -46.2335 -46.2335 -46.2302 -46.2302
   -32.8110 -32.8110 -32.8072 -32.8072 -32.6369 -32.6369 -32.6251 -32.6251
    -6.0086  -6.0086  -5.6203  -5.6203  -5.3689  -5.3689  -5.3365  -5.3365
     5.5248   5.5248   5.7820   5.7820   6.4195   6.4195   6.9167   6.9167
     6.9577   6.9577   7.2047   7.2047   7.7611   7.7611   8.3817   8.3817
     8.4953   8.4953   9.3773   9.3773   9.8102   9.8102   9.9770   9.9770
    11.7938  11.7938  12.0979  12.0979  12.5783  12.5783  13.5405  13.5405
    13.9149  13.9149  14.0915  14.0915  16.0818  16.0818  16.1799  16.1799
    16.5280  16.5280  16.9500  16.9500  21.7324  21.7324

     occupation numbers 
     1.0000   1.0000   1.0000   1.0000   1.0000   1.0000   1.0000   1.0000
     1.0000   1.0000   1.0000   1.0000   1.0000   1.0000   1.0000   1.0000
     1.0000   1.0000   1.0000   1.0000   1.0000   1.0000   1.0000   1.0000
     1.0000   1.0000   1.0000   1.0000   1.0000   1.0000   1.0000   1.0000
     1.0000   1.0000   1.0000   1.0000   1.0000   1.0000   1.0000   1.0000
     1.0000   1.0000   1.0000   1.0000   1.0000   1.0000   1.0000   1.0000
     1.0000   1.0000   1.0000   1.0000   1.0000   1.0000   1.0000   1.0000
     0.2507   0.2507  -0.0002  -0.0002  -0.0000  -0.0000  -0.0000  -0.0000
    -0.0000  -0.0000  -0.0000  -0.0000  -0.0000  -0.0000

          k = 0.0000 0.1429 0.0000 (  5381 PWs)   bands (ev):

   -79.3847 -79.3847 -79.3835 -79.3835 -46.2266 -46.2266 -46.2169 -46.2169
   -32.7652 -32.7652 -32.7564 -32.7564 -32.6223 -32.6223 -32.6085 -32.6085
    -6.9980  -6.9980  -5.9101  -5.9101  -5.0703  -5.0703  -4.8787  -4.8787
     4.4631   4.4631   4.6623   4.6623   6.0620   6.0620   6.1614   6.1614
     6.3865   6.3865   8.6464   8.6464   8.6890   8.6890   8.9223   8.9223
     9.9442   9.9442  10.3706  10.3706  10.7269  10.7269  11.3984  11.3984
    11.4817  11.4817  11.5342  11.5342  11.7586  11.7586  11.8927  11.8927
    12.3090  12.3090  14.8907  14.8907  15.0079  15.0079  17.6105  17.6105
    17.9365  17.9365  18.2492  18.2492  19.2625  19.2625

     occupation numbers 
     1.0000   1.0000   1.0000   1.0000   1.0000   1.0000   1.0000   1.0000
     1.0000   1.0000   1.0000   1.0000   1.0000   1.0000   1.0000   1.0000
     1.0000   1.0000   1.0000   1.0000   1.0000   1.0000   1.0000   1.0000
     1.0000   1.0000   1.0000   1.0000   1.0000   1.0000   1.0000   1.0000
     1.0000   1.0000   1.0000   1.0000   1.0000   1.0000   1.0000   1.0000
     1.0000   1.0000   1.0000   1.0000   1.0000   1.0000   1.0000   1.0000
     1.0000   1.0000   1.0000   1.0000   1.0000   1.0000   1.0000   1.0000
     1.0000   1.0000  -0.0000  -0.0000  -0.0000  -0.0000  -0.0000  -0.0000
    -0.0000  -0.0000  -0.0000  -0.0000  -0.0000  -0.0000

          k = 0.0000 0.1429 0.2850 (  5383 PWs)   bands (ev):

   -79.3838 -79.3838 -79.3828 -79.3828 -46.2295 -46.2295 -46.2217 -46.2217
   -32.7808 -32.7808 -32.7722 -32.7722 -32.6341 -32.6341 -32.6146 -32.6146
    -6.6628  -6.6628  -5.7366  -5.7366  -5.2156  -5.2156  -5.0702  -5.0702
     4.9189   4.9189   5.0162   5.0162   6.3063   6.3063   6.3555   6.3555
     6.8453   6.8453   7.5416   7.5416   8.3551   8.3551   9.0254   9.0254
     9.3358   9.3358   9.6570   9.6570   9.7296   9.7296  11.0946  11.0946
    11.5163  11.5163  12.0410  12.0410  12.2155  12.2155  12.7886  12.7886
    13.0078  13.0078  14.5896  14.5896  15.6214  15.6214  16.7317  16.7317
    17.0800  17.0800  18.5251  18.5251  19.5047  19.5047

     occupation numbers 
     1.0000   1.0000   1.0000   1.0000   1.0000   1.0000   1.0000   1.0000
     1.0000   1.0000   1.0000   1.0000   1.0000   1.0000   1.0000   1.0000
     1.0000   1.0000   1.0000   1.0000   1.0000   1.0000   1.0000   1.0000
     1.0000   1.0000   1.0000   1.0000   1.0000   1.0000   1.0000   1.0000
     1.0000   1.0000   1.0000   1.0000   1.0000   1.0000   1.0000   1.0000
     1.0000   1.0000   1.0000   1.0000   1.0000   1.0000   1.0000   1.0000
     1.0000   1.0000   1.0000   1.0000   1.0000   1.0000   1.0000   1.0000
     1.0000   1.0000  -0.0000  -0.0000  -0.0000  -0.0000  -0.0000  -0.0000
    -0.0000  -0.0000  -0.0000  -0.0000  -0.0000  -0.0000

          k = 0.0000 0.1429 0.5699 (  5372 PWs)   bands (ev):

   -79.3822 -79.3822 -79.3818 -79.3818 -46.2334 -46.2334 -46.2303 -46.2303
   -32.8158 -32.8158 -32.8024 -32.8024 -32.6378 -32.6378 -32.6242 -32.6242
    -5.9873  -5.9873  -5.6402  -5.6402  -5.3946  -5.3946  -5.3113  -5.3113
     5.5868   5.5868   5.8198   5.8198   6.1504   6.1504   6.6692   6.6692
     7.1927   7.1927   7.2694   7.2694   7.9834   7.9834   8.4033   8.4033
     8.6030   8.6030   9.5004   9.5004   9.7578   9.7578   9.8309   9.8309
    11.8490  11.8490  12.1051  12.1051  12.3704  12.3704  13.2704  13.2704
    13.9071  13.9071  14.2325  14.2325  15.7546  15.7546  15.8682  15.8682
    16.8554  16.8554  17.4611  17.4611  21.8195  21.8195

     occupation numbers 
     1.0000   1.0000   1.0000   1.0000   1.0000   1.0000   1.0000   1.0000
     1.0000   1.0000   1.0000   1.0000   1.0000   1.0000   1.0000   1.0000
     1.0000   1.0000   1.0000   1.0000   1.0000   1.0000   1.0000   1.0000
     1.0000   1.0000   1.0000   1.0000   1.0000   1.0000   1.0000   1.0000
     1.0000   1.0000   1.0000   1.0000   1.0000   1.0000   1.0000   1.0000
     1.0000   1.0000   1.0000   1.0000   1.0000   1.0000   1.0000   1.0000
     1.0000   1.0000   1.0000   1.0000   1.0000   1.0000   1.0000   1.0000
     0.3381   0.3381  -0.0000  -0.0000  -0.0000  -0.0000  -0.0000  -0.0000
    -0.0000  -0.0000  -0.0000  -0.0000  -0.0000  -0.0000

          k = 0.0000 0.2857 0.0000 (  5376 PWs)   bands (ev):

   -79.3845 -79.3845 -79.3837 -79.3837 -46.2251 -46.2251 -46.2184 -46.2184
   -32.7625 -32.7625 -32.7564 -32.7564 -32.6217 -32.6217 -32.6122 -32.6122
    -6.7790  -6.7790  -5.9291  -5.9291  -5.2338  -5.2338  -5.0388  -5.0388
     4.9665   4.9665   5.0687   5.0687   6.1308   6.1308   6.2022   6.2022
     6.7693   6.7693   7.9937   7.9937   8.1665   8.1665   8.6441   8.6441
     9.3423   9.3423   9.4141   9.4141  10.6036  10.6036  11.2912  11.2912
    11.7936  11.7936  11.9020  11.9020  12.1291  12.1291  12.2997  12.2997
    12.7679  12.7679  14.4954  14.4954  15.8291  15.8291  17.4200  17.4200
    17.6794  17.6794  18.7242  18.7242  19.1513  19.1513

     occupation numbers 
     1.0000   1.0000   1.0000   1.0000   1.0000   1.0000   1.0000   1.0000
     1.0000   1.0000   1.0000   1.0000   1.0000   1.0000   1.0000   1.0000
     1.0000   1.0000   1.0000   1.0000   1.0000   1.0000   1.0000   1.0000
     1.0000   1.0000   1.0000   1.0000   1.0000   1.0000   1.0000   1.0000
     1.0000   1.0000   1.0000   1.0000   1.0000   1.0000   1.0000   1.0000
     1.0000   1.0000   1.0000   1.0000   1.0000   1.0000   1.0000   1.0000
     1.0000   1.0000   1.0000   1.0000   1.0000   1.0000   1.0000   1.0000
     1.0000   1.0000  -0.0000  -0.0000  -0.0000  -0.0000  -0.0000  -0.0000
    -0.0000  -0.0000  -0.0000  -0.0000  -0.0000  -0.0000

          k = 0.0000 0.2857 0.2850 (  5375 PWs)   bands (ev):

   -79.3836 -79.3836 -79.3830 -79.3830 -46.2284 -46.2284 -46.2229 -46.2229
   -32.7835 -32.7835 -32.7680 -32.7680 -32.6336 -32.6336 -32.6169 -32.6169
    -6.4706  -6.4706  -5.7124  -5.7124  -5.3848  -5.3848  -5.1956  -5.1956
     5.3003   5.3003   5.4093   5.4093   6.3183   6.3183   6.3819   6.3819
     7.0895   7.0895   7.5532   7.5532   7.7607   7.7607   8.3990   8.3990
     8.6895   8.6895   9.5719   9.5719  10.0529  10.0529  11.0268  11.0268
    11.5885  11.5885  12.3424  12.3424  12.4494  12.4494  12.7515  12.7515
    13.2382  13.2382  14.2767  14.2767  16.1079  16.1079  16.3974  16.3974
    16.9390  16.9390  18.4773  18.4773  20.1824  20.1824

     occupation numbers 
     1.0000   1.0000   1.0000   1.0000   1.0000   1.0000   1.0000   1.0000
     1.0000   1.0000   1.0000   1.0000   1.0000   1.0000   1.0000   1.0000
     1.0000   1.0000   1.0000   1.0000   1.0000   1.0000   1.0000   1.0000
     1.0000   1.0000   1.0000   1.0000   1.0000   1.0000   1.0000   1.0000
     1.0000   1.0000   1.0000   1.0000   1.0000   1.0000   1.0000   1.0000
     1.0000   1.0000   1.0000   1.0000   1.0000   1.0000   1.0000   1.0000
     1.0000   1.0000   1.0000   1.0000   1.0000   1.0000   1.0000   1.0000
     1.0000   1.0000  -0.0000  -0.0000  -0.0000  -0.0000  -0.0000  -0.0000
    -0.0000  -0.0000  -0.0000  -0.0000  -0.0000  -0.0000

          k = 0.0000 0.2857 0.5699 (  5362 PWs)   bands (ev):

   -79.3821 -79.3821 -79.3819 -79.3819 -46.2332 -46.2332 -46.2306 -46.2306
   -32.8209 -32.8209 -32.7975 -32.7975 -32.6395 -32.6395 -32.6226 -32.6226
    -5.9300  -5.9300  -5.6943  -5.6943  -5.4197  -5.4197  -5.2878  -5.2878
     5.6851   5.6851   5.8090   5.8090   5.9864   5.9864   6.3396   6.3396
     7.2487   7.2487   7.5527   7.5527   8.0988   8.0988   8.6605   8.6605
     8.9096   8.9096   9.2732   9.2732   9.5645   9.5645  10.2150  10.2150
    11.6508  11.6508  12.0585  12.0585  12.1406  12.1406  12.7313  12.7313
    13.9839  13.9839  14.3558  14.3558  15.3166  15.3166  15.5083  15.5083
    17.4794  17.4794  18.0511  18.0511  22.0929  22.0929

     occupation numbers 
     1.0000   1.0000   1.0000   1.0000   1.0000   1.0000   1.0000   1.0000
     1.0000   1.0000   1.0000   1.0000   1.0000   1.0000   1.0000   1.0000
     1.0000   1.0000   1.0000   1.0000   1.0000   1.0000   1.0000   1.0000
     1.0000   1.0000   1.0000   1.0000   1.0000   1.0000   1.0000   1.0000
     1.0000   1.0000   1.0000   1.0000   1.0000   1.0000   1.0000   1.0000
     1.0000   1.0000   1.0000   1.0000   1.0000   1.0000   1.0000   1.0000
     1.0000   1.0000   1.0000   1.0000   1.0000   1.0000   1.0000   1.0000
    -0.0341  -0.0341  -0.0000  -0.0000  -0.0000  -0.0000  -0.0000  -0.0000
    -0.0000  -0.0000  -0.0000  -0.0000  -0.0000  -0.0000

          k = 0.0000 0.4286 0.0000 (  5372 PWs)   bands (ev):

   -79.3842 -79.3842 -79.3839 -79.3839 -46.2230 -46.2230 -46.2206 -46.2206
   -32.7595 -32.7595 -32.7573 -32.7573 -32.6199 -32.6199 -32.6165 -32.6165
    -6.4567  -6.4567  -6.1188  -6.1188  -5.3006  -5.3006  -5.2003  -5.2003
     5.5052   5.5052   5.5529   5.5529   6.2129   6.2129   6.2371   6.2371
     7.2452   7.2452   7.4565   7.4565   7.5615   7.5615   8.3415   8.3415
     8.6739   8.6739   8.9262   8.9262  10.7103  10.7103  10.9737  10.9737
    12.0590  12.0590  12.1313  12.1313  12.4088  12.4088  12.5210  12.5210
    13.3358  13.3358  13.9389  13.9389  16.8436  16.8436  17.2836  17.2836
    17.4449  17.4449  17.9238  17.9238  20.2423  20.2423

     occupation numbers 
     1.0000   1.0000   1.0000   1.0000   1.0000   1.0000   1.0000   1.0000
     1.0000   1.0000   1.0000   1.0000   1.0000   1.0000   1.0000   1.0000
     1.0000   1.0000   1.0000   1.0000   1.0000   1.0000   1.0000   1.0000
     1.0000   1.0000   1.0000   1.0000   1.0000   1.0000   1.0000   1.0000
     1.0000   1.0000   1.0000   1.0000   1.0000   1.0000   1.0000   1.0000
     1.0000   1.0000   1.0000   1.0000   1.0000   1.0000   1.0000   1.0000
     1.0000   1.0000   1.0000   1.0000   1.0000   1.0000   1.0000   1.0000
     1.0000   1.0000   0.0535   0.0535  -0.0000  -0.0000  -0.0000  -0.0000
    -0.0000  -0.0000  -0.0000  -0.0000  -0.0000  -0.0000

          k = 0.0000 0.4286 0.2850 (  5383 PWs)   bands (ev):

   -79.3834 -79.3834 -79.3832 -79.3832 -46.2267 -46.2267 -46.2245 -46.2245
   -32.7849 -32.7849 -32.7655 -32.7655 -32.6330 -32.6330 -32.6191 -32.6191
    -6.1850  -6.1850  -5.8692  -5.8692  -5.4445  -5.4445  -5.3260  -5.3260
     5.7833   5.7833   5.9041   5.9041   6.2671   6.2671   6.3820   6.3820
     7.0132   7.0132   7.2288   7.2288   7.9133   7.9133   8.0021   8.0021
     8.2886   8.2886   8.9865   8.9865  10.4484  10.4484  10.7400  10.7400
    11.9823  11.9823  12.2395  12.2395  12.6726  12.6726  12.9073  12.9073
    13.4533  13.4533  13.9468  13.9468  16.1029  16.1029  16.2747  16.2747
    17.3613  17.3613  18.0223  18.0223  21.1595  21.1595

     occupation numbers 
     1.0000   1.0000   1.0000   1.0000   1.0000   1.0000   1.0000   1.0000
     1.0000   1.0000   1.0000   1.0000   1.0000   1.0000   1.0000   1.0000
     1.0000   1.0000   1.0000   1.0000   1.0000   1.0000   1.0000   1.0000
     1.0000   1.0000   1.0000   1.0000   1.0000   1.0000   1.0000   1.0000
     1.0000   1.0000   1.0000   1.0000   1.0000   1.0000   1.0000   1.0000
     1.0000   1.0000   1.0000   1.0000   1.0000   1.0000   1.0000   1.0000
     1.0000   1.0000   1.0000   1.0000   1.0000   1.0000   1.0000   1.0000
     1.0000   1.0000   0.0155   0.0155  -0.0000  -0.0000  -0.0000  -0.0000
    -0.0000  -0.0000  -0.0000  -0.0000  -0.0000  -0.0000

          k = 0.0000 0.4286 0.5699 (  5369 PWs)   bands (ev):

   -79.3820 -79.3820 -79.3819 -79.3819 -46.2329 -46.2329 -46.2309 -46.2309
   -32.8238 -32.8238 -32.7947 -32.7947 -32.6407 -32.6407 -32.6216 -32.6216
    -5.8518  -5.8518  -5.7691  -5.7691  -5.4314  -5.4314  -5.2782  -5.2782
     5.6474   5.6474   5.7088   5.7088   6.1242   6.1242   6.2126   6.2126
     7.2600   7.2600   7.6679   7.6679   8.2352   8.2352   8.7215   8.7215
     8.9048   8.9048   9.0699   9.0699   9.9740   9.9740  10.6539  10.6539
    11.1760  11.1760  11.7380  11.7380  12.1102  12.1102  12.4453  12.4453
    14.0396  14.0396  14.4159  14.4159  15.1277  15.1277  15.2277  15.2277
    18.0150  18.0150  18.2925  18.2925  22.5760  22.5760

     occupation numbers 
     1.0000   1.0000   1.0000   1.0000   1.0000   1.0000   1.0000   1.0000
     1.0000   1.0000   1.0000   1.0000   1.0000   1.0000   1.0000   1.0000
     1.0000   1.0000   1.0000   1.0000   1.0000   1.0000   1.0000   1.0000
     1.0000   1.0000   1.0000   1.0000   1.0000   1.0000   1.0000   1.0000
     1.0000   1.0000   1.0000   1.0000   1.0000   1.0000   1.0000   1.0000
     1.0000   1.0000   1.0000   1.0000   1.0000   1.0000   1.0000   1.0000
     1.0000   1.0000   1.0000   1.0000   1.0000   1.0000   1.0000   1.0000
    -0.0049  -0.0049  -0.0000  -0.0000  -0.0000  -0.0000  -0.0000  -0.0000
    -0.0000  -0.0000  -0.0000  -0.0000  -0.0000  -0.0000

          k = 0.1429 0.1429 0.0000 (  5363 PWs)   bands (ev):

   -79.3846 -79.3846 -79.3836 -79.3836 -46.2261 -46.2261 -46.2174 -46.2174
   -32.7645 -32.7645 -32.7564 -32.7564 -32.6221 -32.6221 -32.6096 -32.6096
    -6.9311  -6.9311  -5.9078  -5.9078  -5.1573  -5.1573  -4.8984  -4.8984
     4.3861   4.3861   5.0320   5.0320   6.0600   6.0600   6.1921   6.1921
     6.5110   6.5110   8.0739   8.0739   8.6577   8.6577   9.0215   9.0215
     9.8643   9.8643  10.2976  10.2976  10.4732  10.4732  11.1535  11.1535
    11.4534  11.4534  11.6167  11.6167  11.9643  11.9643  12.1300  12.1300
    12.5390  12.5390  14.8038  14.8038  15.1451  15.1451  17.4936  17.4936
    17.9211  17.9211  18.6264  18.6264  19.0692  19.0692

     occupation numbers 
     1.0000   1.0000   1.0000   1.0000   1.0000   1.0000   1.0000   1.0000
     1.0000   1.0000   1.0000   1.0000   1.0000   1.0000   1.0000   1.0000
     1.0000   1.0000   1.0000   1.0000   1.0000   1.0000   1.0000   1.0000
     1.0000   1.0000   1.0000   1.0000   1.0000   1.0000   1.0000   1.0000
     1.0000   1.0000   1.0000   1.0000   1.0000   1.0000   1.0000   1.0000
     1.0000   1.0000   1.0000   1.0000   1.0000   1.0000   1.0000   1.0000
     1.0000   1.0000   1.0000   1.0000   1.0000   1.0000   1.0000   1.0000
     1.0000   1.0000  -0.0000  -0.0000  -0.0000  -0.0000  -0.0000  -0.0000
    -0.0000  -0.0000  -0.0000  -0.0000  -0.0000  -0.0000

          k = 0.1429 0.1429 0.2850 (  5380 PWs)   bands (ev):

   -79.3837 -79.3837 -79.3829 -79.3829 -46.2291 -46.2291 -46.2221 -46.2221
   -32.7818 -32.7818 -32.7708 -32.7708 -32.6339 -32.6339 -32.6154 -32.6154
    -6.6038  -6.6038  -5.7212  -5.7212  -5.2984  -5.2984  -5.0850  -5.0850
     4.8182   4.8182   5.3606   5.3606   6.2082   6.2082   6.4568   6.4568
     6.9908   6.9908   7.3828   7.3828   8.3386   8.3386   8.5359   8.5359
     9.2606   9.2606   9.6536   9.6536  10.0088  10.0088  11.2010  11.2010
    11.3404  11.3404  11.9239  11.9239  12.4062  12.4062  12.7620  12.7620
    13.1587  13.1587  14.4924  14.4924  15.7608  15.7608  16.5106  16.5106
    17.1183  17.1183  18.5444  18.5444  19.7355  19.7355

     occupation numbers 
     1.0000   1.0000   1.0000   1.0000   1.0000   1.0000   1.0000   1.0000
     1.0000   1.0000   1.0000   1.0000   1.0000   1.0000   1.0000   1.0000
     1.0000   1.0000   1.0000   1.0000   1.0000   1.0000   1.0000   1.0000
     1.0000   1.0000   1.0000   1.0000   1.0000   1.0000   1.0000   1.0000
     1.0000   1.0000   1.0000   1.0000   1.0000   1.0000   1.0000   1.0000
     1.0000   1.0000   1.0000   1.0000   1.0000   1.0000   1.0000   1.0000
     1.0000   1.0000   1.0000   1.0000   1.0000   1.0000   1.0000   1.0000
     1.0000   1.0000  -0.0000  -0.0000  -0.0000  -0.0000  -0.0000  -0.0000
    -0.0000  -0.0000  -0.0000  -0.0000  -0.0000  -0.0000

          k = 0.1429 0.1429 0.5699 (  5375 PWs)   bands (ev):

   -79.3822 -79.3822 -79.3818 -79.3818 -46.2333 -46.2333 -46.2304 -46.2304
   -32.8176 -32.8176 -32.8008 -32.8008 -32.6383 -32.6383 -32.6239 -32.6239
    -5.9663  -5.9663  -5.6515  -5.6515  -5.4114  -5.4114  -5.3025  -5.3025
     5.6178   5.6178   5.8481   5.8481   6.0403   6.0403   6.6507   6.6507
     6.8705   6.8705   7.5794   7.5794   8.1064   8.1064   8.4500   8.4500
     8.7083   8.7083   9.4009   9.4009   9.6709   9.6709  10.0092  10.0092
    11.8404  11.8404  12.0798  12.0798  12.2549  12.2549  13.2749  13.2749
    13.6527  13.6527  14.3791  14.3791  15.3687  15.3687  16.1875  16.1875
    16.7437  16.7437  17.7644  17.7644  21.9036  21.9036

     occupation numbers 
     1.0000   1.0000   1.0000   1.0000   1.0000   1.0000   1.0000   1.0000
     1.0000   1.0000   1.0000   1.0000   1.0000   1.0000   1.0000   1.0000
     1.0000   1.0000   1.0000   1.0000   1.0000   1.0000   1.0000   1.0000
     1.0000   1.0000   1.0000   1.0000   1.0000   1.0000   1.0000   1.0000
     1.0000   1.0000   1.0000   1.0000   1.0000   1.0000   1.0000   1.0000
     1.0000   1.0000   1.0000   1.0000   1.0000   1.0000   1.0000   1.0000
     1.0000   1.0000   1.0000   1.0000   1.0000   1.0000   1.0000   1.0000
     1.0000   1.0000  -0.0000  -0.0000  -0.0000  -0.0000  -0.0000  -0.0000
    -0.0000  -0.0000  -0.0000  -0.0000  -0.0000  -0.0000

          k = 0.1429 0.2857 0.0000 (  5373 PWs)   bands (ev):

   -79.3845 -79.3845 -79.3837 -79.3837 -46.2248 -46.2248 -46.2187 -46.2187
   -32.7625 -32.7625 -32.7566 -32.7566 -32.6214 -32.6214 -32.6125 -32.6125
    -6.7413  -6.7413  -5.9564  -5.9564  -5.2877  -5.2877  -4.9931  -4.9931
     4.5642   4.5642   5.5504   5.5504   6.0839   6.0839   6.2383   6.2383
     6.8752   6.8752   7.4098   7.4098   8.5773   8.5773   8.7079   8.7079
     9.5087   9.5087   9.6352   9.6352  10.2843  10.2843  11.1727  11.1727
    11.4813  11.4813  11.8320  11.8320  12.1600  12.1600  12.4637  12.4637
    12.9525  12.9525  14.4699  14.4699  15.7384  15.7384  17.3396  17.3396
    17.7771  17.7771  18.5205  18.5205  19.5176  19.5176

     occupation numbers 
     1.0000   1.0000   1.0000   1.0000   1.0000   1.0000   1.0000   1.0000
     1.0000   1.0000   1.0000   1.0000   1.0000   1.0000   1.0000   1.0000
     1.0000   1.0000   1.0000   1.0000   1.0000   1.0000   1.0000   1.0000
     1.0000   1.0000   1.0000   1.0000   1.0000   1.0000   1.0000   1.0000
     1.0000   1.0000   1.0000   1.0000   1.0000   1.0000   1.0000   1.0000
     1.0000   1.0000   1.0000   1.0000   1.0000   1.0000   1.0000   1.0000
     1.0000   1.0000   1.0000   1.0000   1.0000   1.0000   1.0000   1.0000
     1.0000   1.0000  -0.0000  -0.0000  -0.0000  -0.0000  -0.0000  -0.0000
    -0.0000  -0.0000  -0.0000  -0.0000  -0.0000  -0.0000

          k = 0.1429 0.2857 0.2850 (  5381 PWs)   bands (ev):

   -79.3836 -79.3836 -79.3830 -79.3830 -46.2281 -46.2281 -46.2232 -46.2232
   -32.7833 -32.7833 -32.7683 -32.7683 -32.6330 -32.6330 -32.6175 -32.6175
    -6.4366  -6.4366  -5.7264  -5.7264  -5.4371  -5.4371  -5.1606  -5.1606
     4.9588   4.9588   5.8421   5.8421   6.1852   6.1852   6.3926   6.3926
     7.1005   7.1005   7.4629   7.4629   7.9944   7.9944   8.0821   8.0821
     9.1178   9.1178   9.4971   9.4971  10.0787  10.0787  10.8822  10.8822
    11.6228  11.6228  12.0759  12.0759  12.4697  12.4697  12.8725  12.8725
    13.3292  13.3292  14.2197  14.2197  16.0608  16.0608  16.3678  16.3678
    17.0357  17.0357  18.3573  18.3573  20.4332  20.4332

     occupation numbers 
     1.0000   1.0000   1.0000   1.0000   1.0000   1.0000   1.0000   1.0000
     1.0000   1.0000   1.0000   1.0000   1.0000   1.0000   1.0000   1.0000
     1.0000   1.0000   1.0000   1.0000   1.0000   1.0000   1.0000   1.0000
     1.0000   1.0000   1.0000   1.0000   1.0000   1.0000   1.0000   1.0000
     1.0000   1.0000   1.0000   1.0000   1.0000   1.0000   1.0000   1.0000
     1.0000   1.0000   1.0000   1.0000   1.0000   1.0000   1.0000   1.0000
     1.0000   1.0000   1.0000   1.0000   1.0000   1.0000   1.0000   1.0000
     1.0000   1.0000  -0.0000  -0.0000  -0.0000  -0.0000  -0.0000  -0.0000
    -0.0000  -0.0000  -0.0000  -0.0000  -0.0000  -0.0000

          k = 0.1429 0.2857 0.5699 (  5366 PWs)   bands (ev):

   -79.3821 -79.3821 -79.3819 -79.3819 -46.2331 -46.2331 -46.2307 -46.2307
   -32.8205 -32.8205 -32.7979 -32.7979 -32.6392 -32.6392 -32.6231 -32.6231
    -5.9095  -5.9095  -5.6890  -5.6890  -5.4341  -5.4341  -5.2950  -5.2950
     5.6754   5.6754   5.7452   5.7452   6.0781   6.0781   6.3392   6.3392
     6.9151   6.9151   7.7026   7.7026   8.2238   8.2238   8.6616   8.6616
     8.8343   8.8343   9.2841   9.2841   9.6758   9.6758  10.3910  10.3910
    11.5622  11.5622  12.0201  12.0201  12.1932  12.1932  12.8371  12.8371
    13.7257  13.7257  14.4132  14.4132  15.1291  15.1291  15.8696  15.8696
    17.2452  17.2452  18.1190  18.1190  22.1604  22.1604

     occupation numbers 
     1.0000   1.0000   1.0000   1.0000   1.0000   1.0000   1.0000   1.0000
     1.0000   1.0000   1.0000   1.0000   1.0000   1.0000   1.0000   1.0000
     1.0000   1.0000   1.0000   1.0000   1.0000   1.0000   1.0000   1.0000
     1.0000   1.0000   1.0000   1.0000   1.0000   1.0000   1.0000   1.0000
     1.0000   1.0000   1.0000   1.0000   1.0000   1.0000   1.0000   1.0000
     1.0000   1.0000   1.0000   1.0000   1.0000   1.0000   1.0000   1.0000
     1.0000   1.0000   1.0000   1.0000   1.0000   1.0000   1.0000   1.0000
     1.0013   1.0013  -0.0000  -0.0000  -0.0000  -0.0000  -0.0000  -0.0000
    -0.0000  -0.0000  -0.0000  -0.0000  -0.0000  -0.0000

          k = 0.1429 0.4286 0.0000 (  5380 PWs)   bands (ev):

   -79.3842 -79.3842 -79.3840 -79.3840 -46.2228 -46.2228 -46.2207 -46.2207
   -32.7599 -32.7599 -32.7578 -32.7578 -32.6195 -32.6195 -32.6162 -32.6162
    -6.4629  -6.4629  -6.1624  -6.1624  -5.2761  -5.2761  -5.1436  -5.1436
     5.0105   5.0105   5.5282   5.5282   6.1418   6.1418   6.2172   6.2172
     7.3240   7.3240   7.5579   7.5579   8.0826   8.0826   8.5896   8.5896
     8.7953   8.7953   9.0864   9.0864  10.4555  10.4555  10.8023  10.8023
    11.8936  11.8936  12.0773  12.0773  12.2472  12.2472  12.4828  12.4828
    13.4607  13.4607  13.9966  13.9966  16.6238  16.6238  17.3375  17.3375
    17.4832  17.4832  17.7854  17.7854  20.5440  20.5440

     occupation numbers 
     1.0000   1.0000   1.0000   1.0000   1.0000   1.0000   1.0000   1.0000
     1.0000   1.0000   1.0000   1.0000   1.0000   1.0000   1.0000   1.0000
     1.0000   1.0000   1.0000   1.0000   1.0000   1.0000   1.0000   1.0000
     1.0000   1.0000   1.0000   1.0000   1.0000   1.0000   1.0000   1.0000
     1.0000   1.0000   1.0000   1.0000   1.0000   1.0000   1.0000   1.0000
     1.0000   1.0000   1.0000   1.0000   1.0000   1.0000   1.0000   1.0000
     1.0000   1.0000   1.0000   1.0000   1.0000   1.0000   1.0000   1.0000
     1.0000   1.0000  -0.0271  -0.0271  -0.0000  -0.0000  -0.0000  -0.0000
    -0.0000  -0.0000  -0.0000  -0.0000  -0.0000  -0.0000

          k = 0.1429 0.4286 0.2850 (  5369 PWs)   bands (ev):

   -79.3834 -79.3834 -79.3832 -79.3832 -46.2266 -46.2266 -46.2246 -46.2246
   -32.7842 -32.7842 -32.7667 -32.7667 -32.6321 -32.6321 -32.6196 -32.6196
    -6.1905  -6.1905  -5.9143  -5.9143  -5.4152  -5.4152  -5.2825  -5.2825
     5.3455   5.3455   5.8540   5.8540   6.2252   6.2252   6.2903   6.2903
     7.1526   7.1526   7.4892   7.4892   7.9736   7.9736   8.2921   8.2921
     8.5604   8.5604   9.0466   9.0466  10.2586  10.2586  10.5607  10.5607
    11.9995  11.9995  12.2019  12.2019  12.5849  12.5849  12.8570  12.8570
    13.4788  13.4788  13.9058  13.9058  16.1574  16.1574  16.4294  16.4294
    17.2683  17.2683  17.8790  17.8790  21.3395  21.3395

     occupation numbers 
     1.0000   1.0000   1.0000   1.0000   1.0000   1.0000   1.0000   1.0000
     1.0000   1.0000   1.0000   1.0000   1.0000   1.0000   1.0000   1.0000
     1.0000   1.0000   1.0000   1.0000   1.0000   1.0000   1.0000   1.0000
     1.0000   1.0000   1.0000   1.0000   1.0000   1.0000   1.0000   1.0000
     1.0000   1.0000   1.0000   1.0000   1.0000   1.0000   1.0000   1.0000
     1.0000   1.0000   1.0000   1.0000   1.0000   1.0000   1.0000   1.0000
     1.0000   1.0000   1.0000   1.0000   1.0000   1.0000   1.0000   1.0000
     1.0000   1.0000   0.3530   0.3530  -0.0000  -0.0000  -0.0000  -0.0000
    -0.0000  -0.0000  -0.0000  -0.0000  -0.0000  -0.0000

          k = 0.1429 0.4286 0.5699 (  5366 PWs)   bands (ev):

   -79.3820 -79.3820 -79.3820 -79.3820 -46.2328 -46.2328 -46.2310 -46.2310
   -32.8225 -32.8225 -32.7961 -32.7961 -32.6399 -32.6399 -32.6225 -32.6225
    -5.8327  -5.8327  -5.7531  -5.7531  -5.4429  -5.4429  -5.2957  -5.2957
     5.6445   5.6445   5.7035   5.7035   6.1054   6.1054   6.2015   6.2015
     7.1353   7.1353   7.5287   7.5287   8.3284   8.3284   8.5898   8.5898
     8.9945   8.9945   9.2530   9.2530  10.0337  10.0337  10.6585  10.6585
    11.3086  11.3086  11.8612  11.8612  12.1055  12.1055  12.4530  12.4530
    13.9099  13.9099  14.3339  14.3339  15.1632  15.1632  15.4476  15.4476
    17.8238  17.8238  18.1812  18.1812  22.6113  22.6114

     occupation numbers 
     1.0000   1.0000   1.0000   1.0000   1.0000   1.0000   1.0000   1.0000
     1.0000   1.0000   1.0000   1.0000   1.0000   1.0000   1.0000   1.0000
     1.0000   1.0000   1.0000   1.0000   1.0000   1.0000   1.0000   1.0000
     1.0000   1.0000   1.0000   1.0000   1.0000   1.0000   1.0000   1.0000
     1.0000   1.0000   1.0000   1.0000   1.0000   1.0000   1.0000   1.0000
     1.0000   1.0000   1.0000   1.0000   1.0000   1.0000   1.0000   1.0000
     1.0000   1.0000   1.0000   1.0000   1.0000   1.0000   1.0000   1.0000
     0.3061   0.3061  -0.0000  -0.0000  -0.0000  -0.0000  -0.0000  -0.0000
    -0.0000  -0.0000  -0.0000  -0.0000  -0.0000  -0.0000

          k = 0.2857 0.2857 0.0000 (  5393 PWs)   bands (ev):

   -79.3843 -79.3843 -79.3838 -79.3838 -46.2239 -46.2239 -46.2197 -46.2197
   -32.7620 -32.7620 -32.7574 -32.7574 -32.6203 -32.6203 -32.6137 -32.6137
    -6.6325  -6.6325  -6.0712  -6.0712  -5.2906  -5.2906  -4.9809  -4.9809
     4.4001   4.4001   5.5356   5.5356   6.0425   6.0425   6.2143   6.2143
     7.1911   7.1911   7.4800   7.4800   8.7105   8.7105   8.8711   8.8711
     9.6295   9.6295   9.7188   9.7188   9.9542   9.9542  10.9147  10.9147
    11.1809  11.1809  11.6781  11.6781  12.1527  12.1527  12.4907  12.4907
    13.3384  13.3384  14.3421  14.3421  15.7991  15.7991  17.3685  17.3685
    17.6803  17.6803  18.0913  18.0913  20.3335  20.3335

     occupation numbers 
     1.0000   1.0000   1.0000   1.0000   1.0000   1.0000   1.0000   1.0000
     1.0000   1.0000   1.0000   1.0000   1.0000   1.0000   1.0000   1.0000
     1.0000   1.0000   1.0000   1.0000   1.0000   1.0000   1.0000   1.0000
     1.0000   1.0000   1.0000   1.0000   1.0000   1.0000   1.0000   1.0000
     1.0000   1.0000   1.0000   1.0000   1.0000   1.0000   1.0000   1.0000
     1.0000   1.0000   1.0000   1.0000   1.0000   1.0000   1.0000   1.0000
     1.0000   1.0000   1.0000   1.0000   1.0000   1.0000   1.0000   1.0000
     1.0000   1.0000  -0.0000  -0.0000  -0.0000  -0.0000  -0.0000  -0.0000
    -0.0000  -0.0000  -0.0000  -0.0000  -0.0000  -0.0000

          k = 0.2857 0.2857 0.2850 (  5384 PWs)   bands (ev):

   -79.3835 -79.3835 -79.3831 -79.3831 -46.2274 -46.2274 -46.2239 -46.2239
   -32.7828 -32.7828 -32.7691 -32.7691 -32.6315 -32.6315 -32.6192 -32.6192
    -6.3394  -6.3394  -5.8322  -5.8322  -5.4306  -5.4306  -5.1532  -5.1532
     4.8118   4.8118   5.8580   5.8580   6.0827   6.0827   6.2740   6.2740
     7.2324   7.2324   7.7122   7.7122   8.1053   8.1053   8.2831   8.2831
     9.0981   9.0981   9.6160   9.6160   9.9840   9.9840  10.4946  10.4946
    11.7182  11.7182  11.9739  11.9739  12.4630  12.4630  12.8601  12.8601
    13.4610  13.4610  14.0436  14.0436  16.1088  16.1088  16.4636  16.4636
    17.1076  17.1076  18.0184  18.0184  21.0439  21.0439

     occupation numbers 
     1.0000   1.0000   1.0000   1.0000   1.0000   1.0000   1.0000   1.0000
     1.0000   1.0000   1.0000   1.0000   1.0000   1.0000   1.0000   1.0000
     1.0000   1.0000   1.0000   1.0000   1.0000   1.0000   1.0000   1.0000
     1.0000   1.0000   1.0000   1.0000   1.0000   1.0000   1.0000   1.0000
     1.0000   1.0000   1.0000   1.0000   1.0000   1.0000   1.0000   1.0000
     1.0000   1.0000   1.0000   1.0000   1.0000   1.0000   1.0000   1.0000
     1.0000   1.0000   1.0000   1.0000   1.0000   1.0000   1.0000   1.0000
     1.0000   1.0000  -0.0039  -0.0039  -0.0000  -0.0000  -0.0000  -0.0000
    -0.0000  -0.0000  -0.0000  -0.0000  -0.0000  -0.0000

          k = 0.2857 0.2857 0.5699 (  5354 PWs)   bands (ev):

   -79.3821 -79.3821 -79.3819 -79.3819 -46.2328 -46.2328 -46.2310 -46.2310
   -32.8196 -32.8196 -32.7990 -32.7990 -32.6384 -32.6384 -32.6242 -32.6242
    -5.8547  -5.8547  -5.6859  -5.6859  -5.4605  -5.4605  -5.3172  -5.3172
     5.6216   5.6216   5.7033   5.7033   6.1681   6.1681   6.3547   6.3547
     6.6044   6.6044   7.6562   7.6562   8.3079   8.3079   8.5560   8.5560
     8.9378   8.9378   9.6024   9.6024   9.7261   9.7261  10.7203  10.7203
    11.4399  11.4399  11.9896  11.9896  12.2143  12.2143  13.0118  13.0118
    13.3266  13.3266  14.3348  14.3348  15.1410  15.1410  16.1881  16.1881
    17.0069  17.0069  18.0933  18.0933  22.3564  22.3564

     occupation numbers 
     1.0000   1.0000   1.0000   1.0000   1.0000   1.0000   1.0000   1.0000
     1.0000   1.0000   1.0000   1.0000   1.0000   1.0000   1.0000   1.0000
     1.0000   1.0000   1.0000   1.0000   1.0000   1.0000   1.0000   1.0000
     1.0000   1.0000   1.0000   1.0000   1.0000   1.0000   1.0000   1.0000
     1.0000   1.0000   1.0000   1.0000   1.0000   1.0000   1.0000   1.0000
     1.0000   1.0000   1.0000   1.0000   1.0000   1.0000   1.0000   1.0000
     1.0000   1.0000   1.0000   1.0000   1.0000   1.0000   1.0000   1.0000
     1.0000   1.0000  -0.0000  -0.0000  -0.0000  -0.0000  -0.0000  -0.0000
    -0.0000  -0.0000  -0.0000  -0.0000  -0.0000  -0.0000

          k = 0.2857 0.4286 0.0000 (  5394 PWs)   bands (ev):

   -79.3842 -79.3842 -79.3840 -79.3840 -46.2225 -46.2225 -46.2210 -46.2210
   -32.7608 -32.7608 -32.7590 -32.7590 -32.6182 -32.6182 -32.6158 -32.6158
    -6.4653  -6.4653  -6.2633  -6.2633  -5.1875  -5.1875  -5.0581  -5.0581
     4.5646   4.5646   5.0085   5.0085   6.0557   6.0557   6.1239   6.1239
     7.7259   7.7259   8.0899   8.0899   8.6207   8.6207   8.9776   8.9776
     9.3139   9.3139   9.4214   9.4214   9.9599   9.9599  10.4578  10.4578
    11.4826  11.4826  11.7968  11.7968  12.0101  12.0101  12.2436  12.2436
    13.7330  13.7330  14.0851  14.0851  16.2726  16.2726  16.9992  16.9992
    17.6040  17.6040  17.8583  17.8583  21.2103  21.2104

     occupation numbers 
     1.0000   1.0000   1.0000   1.0000   1.0000   1.0000   1.0000   1.0000
     1.0000   1.0000   1.0000   1.0000   1.0000   1.0000   1.0000   1.0000
     1.0000   1.0000   1.0000   1.0000   1.0000   1.0000   1.0000   1.0000
     1.0000   1.0000   1.0000   1.0000   1.0000   1.0000   1.0000   1.0000
     1.0000   1.0000   1.0000   1.0000   1.0000   1.0000   1.0000   1.0000
     1.0000   1.0000   1.0000   1.0000   1.0000   1.0000   1.0000   1.0000
     1.0000   1.0000   1.0000   1.0000   1.0000   1.0000   1.0000   1.0000
     1.0021   1.0021  -0.0003  -0.0003  -0.0000  -0.0000  -0.0000  -0.0000
    -0.0000  -0.0000  -0.0000  -0.0000  -0.0000  -0.0000

          k = 0.2857 0.4286 0.2850 (  5376 PWs)   bands (ev):

   -79.3834 -79.3834 -79.3832 -79.3832 -46.2264 -46.2264 -46.2250 -46.2250
   -32.7823 -32.7823 -32.7699 -32.7699 -32.6298 -32.6298 -32.6209 -32.6209
    -6.1921  -6.1921  -6.0111  -6.0111  -5.3325  -5.3325  -5.2162  -5.2162
     4.9498   4.9498   5.3483   5.3483   6.0983   6.0983   6.1942   6.1942
     7.5796   7.5796   7.9217   7.9217   8.3471   8.3471   8.6741   8.6741
     8.9390   8.9390   9.3778   9.3778   9.8348   9.8348  10.1023  10.1023
    11.9384  11.9384  12.1218  12.1218  12.4705  12.4705  12.6467  12.6467
    13.5552  13.5552  13.8162  13.8162  16.3510  16.3510  16.6357  16.6357
    17.1463  17.1463  17.5506  17.5506  21.7805  21.7806

     occupation numbers 
     1.0000   1.0000   1.0000   1.0000   1.0000   1.0000   1.0000   1.0000
     1.0000   1.0000   1.0000   1.0000   1.0000   1.0000   1.0000   1.0000
     1.0000   1.0000   1.0000   1.0000   1.0000   1.0000   1.0000   1.0000
     1.0000   1.0000   1.0000   1.0000   1.0000   1.0000   1.0000   1.0000
     1.0000   1.0000   1.0000   1.0000   1.0000   1.0000   1.0000   1.0000
     1.0000   1.0000   1.0000   1.0000   1.0000   1.0000   1.0000   1.0000
     1.0000   1.0000   1.0000   1.0000   1.0000   1.0000   1.0000   1.0000
     1.0000   1.0000   1.0342   1.0342  -0.0000  -0.0000  -0.0000  -0.0000
    -0.0000  -0.0000  -0.0000  -0.0000  -0.0000  -0.0000

          k = 0.2857 0.4286 0.5699 (  5362 PWs)   bands (ev):

   -79.3820 -79.3820 -79.3820 -79.3820 -46.2326 -46.2326 -46.2313 -46.2313
   -32.8188 -32.8188 -32.7999 -32.7999 -32.6376 -32.6376 -32.6251 -32.6251
    -5.7835  -5.7835  -5.7147  -5.7147  -5.4685  -5.4685  -5.3441  -5.3441
     5.6072   5.6072   5.6829   5.6829   6.0708   6.0708   6.2419   6.2419
     6.8799   6.8799   7.3088   7.3088   8.3390   8.3390   8.4820   8.4820
     9.2428   9.2428   9.5027   9.5027  10.1671  10.1671  10.6437  10.6437
    11.6793  11.6793  11.9893  11.9893  12.1692  12.1692  12.5909  12.5909
    13.5682  13.5682  14.0795  14.0795  15.4281  15.4281  15.8740  15.8740
    17.3809  17.3809  17.8442  17.8442  22.7084  22.7084

     occupation numbers 
     1.0000   1.0000   1.0000   1.0000   1.0000   1.0000   1.0000   1.0000
     1.0000   1.0000   1.0000   1.0000   1.0000   1.0000   1.0000   1.0000
     1.0000   1.0000   1.0000   1.0000   1.0000   1.0000   1.0000   1.0000
     1.0000   1.0000   1.0000   1.0000   1.0000   1.0000   1.0000   1.0000
     1.0000   1.0000   1.0000   1.0000   1.0000   1.0000   1.0000   1.0000
     1.0000   1.0000   1.0000   1.0000   1.0000   1.0000   1.0000   1.0000
     1.0000   1.0000   1.0000   1.0000   1.0000   1.0000   1.0000   1.0000
     1.0000   1.0000  -0.0004  -0.0004  -0.0000  -0.0000  -0.0000  -0.0000
    -0.0000  -0.0000  -0.0000  -0.0000  -0.0000  -0.0000

          k = 0.4286 0.4286 0.0000 (  5408 PWs)   bands (ev):

   -79.3841 -79.3841 -79.3841 -79.3841 -46.2221 -46.2221 -46.2215 -46.2215
   -32.7610 -32.7610 -32.7603 -32.7603 -32.6168 -32.6168 -32.6158 -32.6158
    -6.4371  -6.4371  -6.3665  -6.3665  -5.0832  -5.0832  -5.0298  -5.0298
     4.3991   4.3991   4.5632   4.5632   6.0150   6.0150   6.0419   6.0419
     8.2267   8.2267   8.6529   8.6529   8.7651   8.7651   9.1900   9.1900
     9.4557   9.4557   9.5991   9.5991   9.9702   9.9702  10.4213  10.4213
    11.1430  11.1430  11.4238  11.4238  11.7747  11.7747  11.9227  11.9227
    13.9639  13.9639  14.0850  14.0850  16.1837  16.1837  16.4677  16.4677
    17.8291  17.8291  17.9311  17.9311  21.9186  21.9186

     occupation numbers 
     1.0000   1.0000   1.0000   1.0000   1.0000   1.0000   1.0000   1.0000
     1.0000   1.0000   1.0000   1.0000   1.0000   1.0000   1.0000   1.0000
     1.0000   1.0000   1.0000   1.0000   1.0000   1.0000   1.0000   1.0000
     1.0000   1.0000   1.0000   1.0000   1.0000   1.0000   1.0000   1.0000
     1.0000   1.0000   1.0000   1.0000   1.0000   1.0000   1.0000   1.0000
     1.0000   1.0000   1.0000   1.0000   1.0000   1.0000   1.0000   1.0000
     1.0000   1.0000   1.0000   1.0000   1.0000   1.0000   1.0000   1.0000
    -0.0280  -0.0280  -0.0003  -0.0003  -0.0000  -0.0000  -0.0000  -0.0000
    -0.0000  -0.0000  -0.0000  -0.0000  -0.0000  -0.0000

          k = 0.4286 0.4286 0.2850 (  5386 PWs)   bands (ev):

   -79.3833 -79.3833 -79.3833 -79.3833 -46.2259 -46.2259 -46.2254 -46.2254
   -32.7796 -32.7796 -32.7736 -32.7736 -32.6270 -32.6270 -32.6229 -32.6229
    -6.1670  -6.1670  -6.1042  -6.1042  -5.2437  -5.2437  -5.1960  -5.1960
     4.8026   4.8026   4.9488   4.9488   6.0403   6.0403   6.0790   6.0790
     8.0261   8.0261   8.2485   8.2485   8.6087   8.6087   8.9904   8.9904
     9.2906   9.2906   9.4313   9.4313   9.4793   9.4793   9.8075   9.8075
    11.7871  11.7871  11.9820  11.9820  12.4368  12.4368  12.5160  12.5160
    13.6153  13.6153  13.7158  13.7158  16.5210  16.5210  16.6907  16.6907
    17.1506  17.1506  17.2920  17.2920  22.3361  22.3362

     occupation numbers 
     1.0000   1.0000   1.0000   1.0000   1.0000   1.0000   1.0000   1.0000
     1.0000   1.0000   1.0000   1.0000   1.0000   1.0000   1.0000   1.0000
     1.0000   1.0000   1.0000   1.0000   1.0000   1.0000   1.0000   1.0000
     1.0000   1.0000   1.0000   1.0000   1.0000   1.0000   1.0000   1.0000
     1.0000   1.0000   1.0000   1.0000   1.0000   1.0000   1.0000   1.0000
     1.0000   1.0000   1.0000   1.0000   1.0000   1.0000   1.0000   1.0000
     1.0000   1.0000   1.0000   1.0000   1.0000   1.0000   1.0000   1.0000
     1.0000   1.0000   1.0007   1.0007  -0.0000  -0.0000  -0.0000  -0.0000
    -0.0000  -0.0000  -0.0000  -0.0000  -0.0000  -0.0000

          k = 0.4286 0.4286 0.5699 (  5352 PWs)   bands (ev):

   -79.3820 -79.3820 -79.3820 -79.3820 -46.2322 -46.2322 -46.2316 -46.2316
   -32.8140 -32.8140 -32.8048 -32.8048 -32.6345 -32.6345 -32.6285 -32.6285
    -5.7269  -5.7269  -5.6911  -5.6911  -5.4767  -5.4767  -5.4052  -5.4052
     5.5778   5.5778   5.6219   5.6219   6.1126   6.1126   6.2591   6.2591
     6.8102   6.8102   7.0307   7.0307   8.3569   8.3569   8.4288   8.4288
     9.4592   9.4592   9.5664   9.5664  10.3901  10.3901  10.5793  10.5793
    11.9371  11.9371  11.9839  11.9839  12.4138  12.4138  12.8306  12.8306
    13.2776  13.2776  13.6927  13.6927  15.8650  15.8650  16.1774  16.1774
    17.0527  17.0527  17.3687  17.3687  22.8988  22.8988

     occupation numbers 
     1.0000   1.0000   1.0000   1.0000   1.0000   1.0000   1.0000   1.0000
     1.0000   1.0000   1.0000   1.0000   1.0000   1.0000   1.0000   1.0000
     1.0000   1.0000   1.0000   1.0000   1.0000   1.0000   1.0000   1.0000
     1.0000   1.0000   1.0000   1.0000   1.0000   1.0000   1.0000   1.0000
     1.0000   1.0000   1.0000   1.0000   1.0000   1.0000   1.0000   1.0000
     1.0000   1.0000   1.0000   1.0000   1.0000   1.0000   1.0000   1.0000
     1.0000   1.0000   1.0000   1.0000   1.0000   1.0000   1.0000   1.0000
     1.0000   1.0000   1.0001   1.0001  -0.0000  -0.0000  -0.0000  -0.0000
    -0.0000  -0.0000  -0.0000  -0.0000  -0.0000  -0.0000

     the Fermi energy is    13.8938 ev

!    total energy              =    -553.08034143 Ry
     estimated scf accuracy    <          5.9E-11 Ry
     smearing contrib. (-TS)   =      -0.00010815 Ry
     internal energy E=F+TS    =    -553.08023329 Ry

     The total energy is F=E-TS. E is the sum of the following terms:
     one-electron contribution =    -190.90862200 Ry
     hartree contribution      =     122.72858638 Ry
     xc contribution           =     -69.91418715 Ry
     ewald contribution        =    -414.98601052 Ry

     convergence has been achieved in  10 iterations

     Forces acting on atoms (cartesian axes, Ry/au):

     atom    1 type  2   force =     0.00000000    0.00000000    0.00000000
     atom    2 type  2   force =     0.00000000    0.00000000    0.00000000
     atom    3 type  1   force =    -0.00012746    0.00012746   -0.00000000
     atom    4 type  1   force =     0.00012746    0.00012746    0.00000000
     atom    5 type  1   force =    -0.00012746   -0.00012746    0.00000000
     atom    6 type  1   force =     0.00012746   -0.00012746   -0.00000000
     The non-local contrib.  to forces
     atom    1 type  2   force =     0.00000000    0.00000000    0.00000000
     atom    2 type  2   force =     0.00000000    0.00000000   -0.00000000
     atom    3 type  1   force =    -0.05477244    0.05477244   -0.00000000
     atom    4 type  1   force =     0.05477244    0.05477244    0.00000000
     atom    5 type  1   force =    -0.05477244   -0.05477244    0.00000000
     atom    6 type  1   force =     0.05477244   -0.05477244   -0.00000000
     The ionic contribution  to forces
     atom    1 type  2   force =    -0.00000000   -0.00000000    0.00000000
     atom    2 type  2   force =     0.00000000    0.00000000   -0.00000000
     atom    3 type  1   force =     1.42937233   -1.42937233    0.00000000
     atom    4 type  1   force =    -1.42937233   -1.42937233   -0.00000000
     atom    5 type  1   force =     1.42937233    1.42937233   -0.00000000
     atom    6 type  1   force =    -1.42937233    1.42937233    0.00000000
     The local contribution  to forces
     atom    1 type  2   force =     0.00000000    0.00000000    0.00000000
     atom    2 type  2   force =     0.00000000    0.00000000    0.00000000
     atom    3 type  1   force =    -1.37472728    1.37472728    0.00000000
     atom    4 type  1   force =     1.37472728    1.37472728    0.00000000
     atom    5 type  1   force =    -1.37472728   -1.37472728    0.00000000
     atom    6 type  1   force =     1.37472728   -1.37472728    0.00000000
     The core correction contribution to forces
     atom    1 type  2   force =     0.00000000    0.00000000    0.00000000
     atom    2 type  2   force =     0.00000000    0.00000000    0.00000000
     atom    3 type  1   force =     0.00000000    0.00000000    0.00000000
     atom    4 type  1   force =     0.00000000    0.00000000    0.00000000
     atom    5 type  1   force =     0.00000000    0.00000000    0.00000000
     atom    6 type  1   force =     0.00000000    0.00000000    0.00000000
     The Hubbard contrib.    to forces
     atom    1 type  2   force =     0.00000000    0.00000000    0.00000000
     atom    2 type  2   force =     0.00000000    0.00000000    0.00000000
     atom    3 type  1   force =     0.00000000    0.00000000    0.00000000
     atom    4 type  1   force =     0.00000000    0.00000000    0.00000000
     atom    5 type  1   force =     0.00000000    0.00000000    0.00000000
     atom    6 type  1   force =     0.00000000    0.00000000    0.00000000
     The SCF correction term to forces
     atom    1 type  2   force =     0.00000000    0.00000000   -0.00000000
     atom    2 type  2   force =     0.00000000   -0.00000000   -0.00000000
     atom    3 type  1   force =    -0.00000007    0.00000007   -0.00000000
     atom    4 type  1   force =     0.00000007    0.00000007   -0.00000000
     atom    5 type  1   force =    -0.00000007   -0.00000007    0.00000000
     atom    6 type  1   force =     0.00000007   -0.00000007   -0.00000000

     Total force =     0.000361     Total SCF correction =     0.000000


     Computing stress (Cartesian axis) and pressure

          total   stress  (Ry/bohr**3)                   (kbar)     P=      -21.14
  -0.00012096   0.00000000   0.00000000          -17.79        0.00        0.00
   0.00000000  -0.00012096   0.00000000            0.00      -17.79        0.00
   0.00000000   0.00000000  -0.00018927            0.00        0.00      -27.84

     kinetic stress (kbar)  48458.28      0.00      0.00
                                0.00  48458.28      0.00
                                0.00      0.00  47515.73

     local   stress (kbar) -12691.48      0.00      0.00
                                0.00 -12691.48      0.00
                                0.00      0.00 -44389.37

     nonloc. stress (kbar)  14528.35      0.00      0.00
                                0.00  14528.35      0.00
                                0.00      0.00  14740.12

     hartree stress (kbar)   9611.40     -0.00     -0.00
                               -0.00   9611.40      0.00
                               -0.00      0.00  21376.56

     exc-cor stress (kbar)  -7288.13      0.00      0.00
                                0.00  -7288.13      0.00
                                0.00      0.00  -7263.44

     corecor stress (kbar)      0.00      0.00      0.00
                                0.00      0.00      0.00
                                0.00      0.00      0.00

     ewald   stress (kbar) -52636.21     -0.00     -0.00
                               -0.00 -52636.21     -0.00
                               -0.00     -0.00 -32007.45

     hubbard stress (kbar)      0.00      0.00      0.00
                                0.00      0.00      0.00
                                0.00      0.00      0.00

     DFT-D   stress (kbar)      0.00      0.00      0.00
                                0.00      0.00      0.00
                                0.00      0.00      0.00

     XDM     stress (kbar)      0.00      0.00      0.00
                                0.00      0.00      0.00
                                0.00      0.00      0.00

     dft-nl  stress (kbar)      0.00      0.00      0.00
                                0.00      0.00      0.00
                                0.00      0.00      0.00

     TS-vdW  stress (kbar)      0.00      0.00      0.00
                                0.00      0.00      0.00
                                0.00      0.00      0.00


                                0.00      0.00      0.00
                                0.00      0.00      0.00


                                0.00      0.00      0.00


     Writing all to output data dir tmp/espresso.save/
 
     init_run     :      3.03s CPU      1.60s WALL (       1 calls)
     electrons    :    101.10s CPU     51.76s WALL (       1 calls)
     forces       :      5.03s CPU      2.58s WALL (       1 calls)
     stress       :      7.25s CPU      3.67s WALL (       1 calls)

     Called by init_run:
     wfcinit      :      2.97s CPU      1.54s WALL (       1 calls)
     wfcinit:atom :      0.01s CPU      0.01s WALL (      30 calls)
     wfcinit:wfcr :      2.88s CPU      1.49s WALL (      30 calls)
     potinit      :      0.02s CPU      0.01s WALL (       1 calls)
     hinit0       :      0.03s CPU      0.03s WALL (       1 calls)

     Called by electrons:
     c_bands      :     92.50s CPU     47.33s WALL (      10 calls)
     sum_band     :      8.46s CPU      4.35s WALL (      10 calls)
     v_of_rho     :      0.05s CPU      0.03s WALL (      11 calls)
     v_h          :      0.00s CPU      0.00s WALL (      11 calls)
     v_xc         :      0.04s CPU      0.02s WALL (      11 calls)
     mix_rho      :      0.04s CPU      0.02s WALL (      10 calls)

     Called by c_bands:
     init_us_2    :      0.28s CPU      0.15s WALL (     690 calls)
     init_us_2:cp :      0.27s CPU      0.14s WALL (     690 calls)
     cegterg      :     85.27s CPU     43.64s WALL (     300 calls)

     Called by sum_band:
     sum_band:wei :      0.06s CPU      0.03s WALL (      10 calls)
     sum_band:loo :      8.38s CPU      4.30s WALL (      10 calls)
     sum_band:buf :      0.05s CPU      0.03s WALL (     300 calls)
     sum_band:ini :      0.09s CPU      0.05s WALL (     300 calls)

     Called by *egterg:
     cdiaghg      :     11.84s CPU      6.01s WALL (     949 calls)
     cegterg:over :      5.32s CPU      2.71s WALL (     649 calls)
     cegterg:upda :      4.17s CPU      2.12s WALL (     649 calls)
     cegterg:last :      7.37s CPU      3.75s WALL (     600 calls)
     cdiaghg:chol :      0.55s CPU      0.28s WALL (     949 calls)
     cdiaghg:inve :      0.09s CPU      0.04s WALL (     949 calls)
     cdiaghg:para :      1.24s CPU      0.63s WALL (    1898 calls)
     h_psi        :     57.19s CPU     29.41s WALL (     979 calls)
     g_psi        :      0.08s CPU      0.04s WALL (     649 calls)

     Called by h_psi:
     h_psi:calbec :      7.01s CPU      3.66s WALL (     979 calls)
     vloc_psi     :     40.14s CPU     20.63s WALL (     979 calls)
     add_vuspsi   :      9.91s CPU      5.05s WALL (     979 calls)

     General routines
     calbec       :      8.37s CPU      4.39s WALL (    1129 calls)
     fft          :      0.06s CPU      0.03s WALL (     150 calls)
     ffts         :      0.01s CPU      0.01s WALL (      40 calls)
     fftw         :     45.43s CPU     23.35s WALL (  257620 calls)
 
     Parallel routines
 
     PWSCF        :   2m 0.17s CPU   1m 6.27s WALL

 
   This run was terminated on:  10:13:18  10Apr2022            

=------------------------------------------------------------------------------=
   JOB DONE.
=------------------------------------------------------------------------------=
