
     Program PWSCF v.7.0 starts on 10Apr2022 at 11:40:27 

     This program is part of the open-source Quantum ESPRESSO suite
     for quantum simulation of materials; please cite
         "P. Giannozzi et al., J. Phys.:Condens. Matter 21 395502 (2009);
         "P. Giannozzi et al., J. Phys.:Condens. Matter 29 465901 (2017);
         "P. Giannozzi et al., J. Chem. Phys. 152 154105 (2020);
          URL http://www.quantum-espresso.org", 
     in publications or presentations arising from this work. More details at
     http://www.quantum-espresso.org/quote

     Parallel version (MPI & OpenMP), running on      64 processor cores
     Number of MPI processes:                32
     Threads/MPI process:                     2

     MPI processes distributed on     1 nodes
     R & G space division:  proc/nbgrp/npool/nimage =      32
     230400 MiB available memory on the printing compute node when the environment starts
 
     Reading input from kpoints_8810.pwi
Warning: card &CELL ignored
Warning: card / ignored

     Current dimensions of program PWSCF are:
     Max number of different atomic species (ntypx) = 10
     Max number of k-points (npk) =  40000
     Max angular momentum in pseudopotentials (lmaxx) =  4

     Subspace diagonalization in iterative solution of the eigenvalue problem:
     one sub-group per band group will be used
     scalapack distributed-memory algorithm (size of sub-group:  5*  5 procs)

 
     Parallelization info
     --------------------
     sticks:   dense  smooth     PW     G-vecs:    dense   smooth      PW
     Min          58      58     17                 1342     1342     211
     Max          59      59     18                 1345     1345     214
     Sum        1885    1885    553                42999    42999    6811
 
     Using Slab Decomposition
 

     Title: 
     IrO2 Unit Cell                                                             


     bravais-lattice index     =            6
     lattice parameter (alat)  =       8.5888  a.u.
     unit-cell volume          =     444.6868 (a.u.)^3
     number of atoms/cell      =            6
     number of atomic types    =            2
     number of electrons       =        58.00
     number of Kohn-Sham states=           70
     kinetic-energy cutoff     =      80.0000  Ry
     charge density cutoff     =     320.0000  Ry
     scf convergence threshold =      1.0E-09
     mixing beta               =       0.7000
     number of iterations used =            8  plain     mixing
     Exchange-correlation= PBE
                           (   1   4   3   4   0   0   0)
     Non magnetic calculation with spin-orbit


     celldm(1)=   8.588800  celldm(2)=   0.000000  celldm(3)=   0.701870
     celldm(4)=   0.000000  celldm(5)=   0.000000  celldm(6)=   0.000000

     crystal axes: (cart. coord. in units of alat)
               a(1) = (   1.000000   0.000000   0.000000 )  
               a(2) = (   0.000000   1.000000   0.000000 )  
               a(3) = (   0.000000   0.000000   0.701870 )  

     reciprocal axes: (cart. coord. in units 2 pi/alat)
               b(1) = (  1.000000  0.000000  0.000000 )  
               b(2) = (  0.000000  1.000000  0.000000 )  
               b(3) = (  0.000000  0.000000  1.424765 )  


     PseudoPot. # 1 for O  read from file:
     ../../XX_PSEUDO/O_ONCV_PBE_fr.upf
     MD5 check sum: 59c925217d3b58c6d762355590b68b09
     Pseudo is Norm-conserving, Zval =  6.0
     Generated using ONCVPSP code by D. R. Hamann
     Using radial grid of  936 points,  6 beta functions with: 
                l(1) =   0
                l(2) =   0
                l(3) =   1
                l(4) =   1
                l(5) =   1
                l(6) =   1

     PseudoPot. # 2 for Ir read from file:
     ../../XX_PSEUDO/Ir_ONCV_PBE_fr.upf
     MD5 check sum: 924e909c4146afa09f62ee3401806954
     Pseudo is Norm-conserving, Zval = 17.0
     Generated using ONCVPSP code by D. R. Hamann
     Using radial grid of 1310 points, 14 beta functions with: 
                l(1) =   0
                l(2) =   0
                l(3) =   1
                l(4) =   1
                l(5) =   1
                l(6) =   1
                l(7) =   2
                l(8) =   2
                l(9) =   2
               l(10) =   2
               l(11) =   3
               l(12) =   3
               l(13) =   3
               l(14) =   3

     atomic species   valence    mass     pseudopotential
        O              6.00    15.99900     O ( 1.00)
        Ir            17.00   192.21700     Ir( 1.00)

     16 Sym. Ops., with inversion, found ( 8 have fractional translation)


                                    s                        frac. trans.

      isym =  1     identity                                     

 cryst.   s( 1) = (     1          0          0      )
                  (     0          1          0      )
                  (     0          0          1      )

 cart.    s( 1) = (  1.0000000  0.0000000  0.0000000 )
                  (  0.0000000  1.0000000  0.0000000 )
                  (  0.0000000  0.0000000  1.0000000 )


      isym =  2     180 deg rotation - cart. axis [0,0,1]        

 cryst.   s( 2) = (    -1          0          0      )
                  (     0         -1          0      )
                  (     0          0          1      )

 cart.    s( 2) = ( -1.0000000  0.0000000  0.0000000 )
                  (  0.0000000 -1.0000000  0.0000000 )
                  (  0.0000000  0.0000000  1.0000000 )


      isym =  3     180 deg rotation - cart. axis [0,1,0]        

 cryst.   s( 3) = (    -1          0          0      )    f =(  0.5000000 )
                  (     0          1          0      )       ( -0.5000000 )
                  (     0          0         -1      )       (  0.5000000 )

 cart.    s( 3) = ( -1.0000000  0.0000000  0.0000000 )    f =(  0.5000000 )
                  (  0.0000000  1.0000000  0.0000000 )       ( -0.5000000 )
                  (  0.0000000  0.0000000 -1.0000000 )       (  0.3509351 )


      isym =  4     180 deg rotation - cart. axis [1,0,0]        

 cryst.   s( 4) = (     1          0          0      )    f =( -0.5000000 )
                  (     0         -1          0      )       (  0.5000000 )
                  (     0          0         -1      )       (  0.5000000 )

 cart.    s( 4) = (  1.0000000  0.0000000  0.0000000 )    f =( -0.5000000 )
                  (  0.0000000 -1.0000000  0.0000000 )       (  0.5000000 )
                  (  0.0000000  0.0000000 -1.0000000 )       (  0.3509351 )


      isym =  5     180 deg rotation - cart. axis [1,1,0]        

 cryst.   s( 5) = (     0          1          0      )
                  (     1          0          0      )
                  (     0          0         -1      )

 cart.    s( 5) = (  0.0000000  1.0000000  0.0000000 )
                  (  1.0000000  0.0000000  0.0000000 )
                  (  0.0000000  0.0000000 -1.0000000 )


      isym =  6     180 deg rotation - cart. axis [1,-1,0]       

 cryst.   s( 6) = (     0         -1          0      )
                  (    -1          0          0      )
                  (     0          0         -1      )

 cart.    s( 6) = (  0.0000000 -1.0000000  0.0000000 )
                  ( -1.0000000  0.0000000  0.0000000 )
                  (  0.0000000  0.0000000 -1.0000000 )


      isym =  7      90 deg rotation - cart. axis [0,0,-1]       

 cryst.   s( 7) = (     0         -1          0      )    f =( -0.5000000 )
                  (     1          0          0      )       (  0.5000000 )
                  (     0          0          1      )       ( -0.5000000 )

 cart.    s( 7) = (  0.0000000  1.0000000  0.0000000 )    f =( -0.5000000 )
                  ( -1.0000000  0.0000000  0.0000000 )       (  0.5000000 )
                  (  0.0000000  0.0000000  1.0000000 )       ( -0.3509351 )


      isym =  8      90 deg rotation - cart. axis [0,0,1]        

 cryst.   s( 8) = (     0          1          0      )    f =(  0.5000000 )
                  (    -1          0          0      )       ( -0.5000000 )
                  (     0          0          1      )       ( -0.5000000 )

 cart.    s( 8) = (  0.0000000 -1.0000000  0.0000000 )    f =(  0.5000000 )
                  (  1.0000000  0.0000000  0.0000000 )       ( -0.5000000 )
                  (  0.0000000  0.0000000  1.0000000 )       ( -0.3509351 )


      isym =  9     inversion                                    

 cryst.   s( 9) = (    -1          0          0      )
                  (     0         -1          0      )
                  (     0          0         -1      )

 cart.    s( 9) = ( -1.0000000  0.0000000  0.0000000 )
                  (  0.0000000 -1.0000000  0.0000000 )
                  (  0.0000000  0.0000000 -1.0000000 )


      isym = 10     inv. 180 deg rotation - cart. axis [0,0,1]   

 cryst.   s(10) = (     1          0          0      )
                  (     0          1          0      )
                  (     0          0         -1      )

 cart.    s(10) = (  1.0000000  0.0000000  0.0000000 )
                  (  0.0000000  1.0000000  0.0000000 )
                  (  0.0000000  0.0000000 -1.0000000 )


      isym = 11     inv. 180 deg rotation - cart. axis [0,1,0]   

 cryst.   s(11) = (     1          0          0      )    f =( -0.5000000 )
                  (     0         -1          0      )       (  0.5000000 )
                  (     0          0          1      )       ( -0.5000000 )

 cart.    s(11) = (  1.0000000  0.0000000  0.0000000 )    f =( -0.5000000 )
                  (  0.0000000 -1.0000000  0.0000000 )       (  0.5000000 )
                  (  0.0000000  0.0000000  1.0000000 )       ( -0.3509351 )


      isym = 12     inv. 180 deg rotation - cart. axis [1,0,0]   

 cryst.   s(12) = (    -1          0          0      )    f =(  0.5000000 )
                  (     0          1          0      )       ( -0.5000000 )
                  (     0          0          1      )       ( -0.5000000 )

 cart.    s(12) = ( -1.0000000  0.0000000  0.0000000 )    f =(  0.5000000 )
                  (  0.0000000  1.0000000  0.0000000 )       ( -0.5000000 )
                  (  0.0000000  0.0000000  1.0000000 )       ( -0.3509351 )


      isym = 13     inv. 180 deg rotation - cart. axis [1,1,0]   

 cryst.   s(13) = (     0         -1          0      )
                  (    -1          0          0      )
                  (     0          0          1      )

 cart.    s(13) = (  0.0000000 -1.0000000  0.0000000 )
                  ( -1.0000000  0.0000000  0.0000000 )
                  (  0.0000000  0.0000000  1.0000000 )


      isym = 14     inv. 180 deg rotation - cart. axis [1,-1,0]  

 cryst.   s(14) = (     0          1          0      )
                  (     1          0          0      )
                  (     0          0          1      )

 cart.    s(14) = (  0.0000000  1.0000000  0.0000000 )
                  (  1.0000000  0.0000000  0.0000000 )
                  (  0.0000000  0.0000000  1.0000000 )


      isym = 15     inv.  90 deg rotation - cart. axis [0,0,-1]  

 cryst.   s(15) = (     0          1          0      )    f =(  0.5000000 )
                  (    -1          0          0      )       ( -0.5000000 )
                  (     0          0         -1      )       (  0.5000000 )

 cart.    s(15) = (  0.0000000 -1.0000000  0.0000000 )    f =(  0.5000000 )
                  (  1.0000000  0.0000000  0.0000000 )       ( -0.5000000 )
                  (  0.0000000  0.0000000 -1.0000000 )       (  0.3509351 )


      isym = 16     inv.  90 deg rotation - cart. axis [0,0,1]   

 cryst.   s(16) = (     0         -1          0      )    f =( -0.5000000 )
                  (     1          0          0      )       (  0.5000000 )
                  (     0          0         -1      )       (  0.5000000 )

 cart.    s(16) = (  0.0000000  1.0000000  0.0000000 )    f =( -0.5000000 )
                  ( -1.0000000  0.0000000  0.0000000 )       (  0.5000000 )
                  (  0.0000000  0.0000000 -1.0000000 )       (  0.3509351 )


     double point group D_4h(4/mmm)
     there are 14 classes and  4 irreducible representations
     the character table:

       E     -E    2C4   -2C4   C2    2C2' 2C2'' i     -i    2S4   -2S4   s_h 
                               -C2   -2C2' -2C2'                         -s_h 
G_6+   2.00 -2.00  1.41 -1.41  0.00  0.00  0.00  2.00 -2.00  1.41 -1.41  0.00
G_7+   2.00 -2.00 -1.41  1.41  0.00  0.00  0.00  2.00 -2.00 -1.41  1.41  0.00
G_6-   2.00 -2.00  1.41 -1.41  0.00  0.00  0.00 -2.00  2.00 -1.41  1.41  0.00
G_7-   2.00 -2.00 -1.41  1.41  0.00  0.00  0.00 -2.00  2.00  1.41 -1.41  0.00

        2s_v  2s_d
       -2s_v -2s_d
G_6+   0.00  0.00
G_7+   0.00  0.00
G_6-   0.00  0.00
G_7-   0.00  0.00

     the symmetry operations in each class and the name of the first element:

     E             1
          identity                                               
     -E           -1
          identity E                                             
     2C4           7    8
           90 deg rotation - cart. axis [0,0,-1]                 
     -2C4         -7   -8
           90 deg rotation - cart. axis [0,0,-1] E               
      C2  -C2      2   -2
          180 deg rotation - cart. axis [0,0,1]                  
      2C2'-2C2'    3   -3    4   -4
          180 deg rotation - cart. axis [0,1,0]                  
     2C2''-2C2'    5   -5   -6    6
          180 deg rotation - cart. axis [1,1,0]                  
     i             9
          inversion                                              
     -i           -9
          inversion E                                            
     2S4          15   16
          inv.  90 deg rotation - cart. axis [0,0,-1]            
     -2S4        -15  -16
          inv.  90 deg rotation - cart. axis [0,0,-1] E          
      s_h -s_h    10  -10
          inv. 180 deg rotation - cart. axis [0,0,1]             
      2s_v-2s_v   11  -11   12  -12
          inv. 180 deg rotation - cart. axis [0,1,0]             
      2s_d-2s_d   13  -13  -14   14
          inv. 180 deg rotation - cart. axis [1,1,0]             

   Cartesian axes

     site n.     atom                  positions (alat units)
         1           Ir  tau(   1) = (   0.0000000   0.0000000   0.0000000  )
         2           Ir  tau(   2) = (   0.5000000   0.5000000   0.3509351  )
         3           O   tau(   3) = (   0.1916000   0.8084000   0.3509351  )
         4           O   tau(   4) = (   0.3084000   0.3084000   0.0000000  )
         5           O   tau(   5) = (   0.6916000   0.6916000   0.0000000  )
         6           O   tau(   6) = (   0.8084000   0.1916000   0.3509351  )

   Crystallographic axes

     site n.     atom                  positions (cryst. coord.)
         1           Ir  tau(   1) = (  0.0000000  0.0000000  0.0000000  )
         2           Ir  tau(   2) = (  0.5000000  0.5000000  0.5000000  )
         3           O   tau(   3) = (  0.1916000  0.8084000  0.5000000  )
         4           O   tau(   4) = (  0.3084000  0.3084000  0.0000000  )
         5           O   tau(   5) = (  0.6916000  0.6916000  0.0000000  )
         6           O   tau(   6) = (  0.8084000  0.1916000  0.5000000  )

     number of k points=    90  Methfessel-Paxton smearing, width (Ry)=  0.0050
                       cart. coord. in units 2pi/alat
        k(    1) = (   0.0000000   0.0000000   0.0000000), wk =   0.0015625
        k(    2) = (   0.0000000   0.0000000   0.1424765), wk =   0.0031250
        k(    3) = (   0.0000000   0.0000000   0.2849530), wk =   0.0031250
        k(    4) = (   0.0000000   0.0000000   0.4274295), wk =   0.0031250
        k(    5) = (   0.0000000   0.0000000   0.5699060), wk =   0.0031250
        k(    6) = (   0.0000000   0.0000000  -0.7123824), wk =   0.0015625
        k(    7) = (   0.0000000   0.1250000   0.0000000), wk =   0.0062500
        k(    8) = (   0.0000000   0.1250000   0.1424765), wk =   0.0125000
        k(    9) = (   0.0000000   0.1250000   0.2849530), wk =   0.0125000
        k(   10) = (   0.0000000   0.1250000   0.4274295), wk =   0.0125000
        k(   11) = (   0.0000000   0.1250000   0.5699060), wk =   0.0125000
        k(   12) = (   0.0000000   0.1250000  -0.7123824), wk =   0.0062500
        k(   13) = (   0.0000000   0.2500000   0.0000000), wk =   0.0062500
        k(   14) = (   0.0000000   0.2500000   0.1424765), wk =   0.0125000
        k(   15) = (   0.0000000   0.2500000   0.2849530), wk =   0.0125000
        k(   16) = (   0.0000000   0.2500000   0.4274295), wk =   0.0125000
        k(   17) = (   0.0000000   0.2500000   0.5699060), wk =   0.0125000
        k(   18) = (   0.0000000   0.2500000  -0.7123824), wk =   0.0062500
        k(   19) = (   0.0000000   0.3750000   0.0000000), wk =   0.0062500
        k(   20) = (   0.0000000   0.3750000   0.1424765), wk =   0.0125000
        k(   21) = (   0.0000000   0.3750000   0.2849530), wk =   0.0125000
        k(   22) = (   0.0000000   0.3750000   0.4274295), wk =   0.0125000
        k(   23) = (   0.0000000   0.3750000   0.5699060), wk =   0.0125000
        k(   24) = (   0.0000000   0.3750000  -0.7123824), wk =   0.0062500
        k(   25) = (   0.0000000  -0.5000000   0.0000000), wk =   0.0031250
        k(   26) = (   0.0000000  -0.5000000   0.1424765), wk =   0.0062500
        k(   27) = (   0.0000000  -0.5000000   0.2849530), wk =   0.0062500
        k(   28) = (   0.0000000  -0.5000000   0.4274295), wk =   0.0062500
        k(   29) = (   0.0000000  -0.5000000   0.5699060), wk =   0.0062500
        k(   30) = (   0.0000000  -0.5000000  -0.7123824), wk =   0.0031250
        k(   31) = (   0.1250000   0.1250000   0.0000000), wk =   0.0062500
        k(   32) = (   0.1250000   0.1250000   0.1424765), wk =   0.0125000
        k(   33) = (   0.1250000   0.1250000   0.2849530), wk =   0.0125000
        k(   34) = (   0.1250000   0.1250000   0.4274295), wk =   0.0125000
        k(   35) = (   0.1250000   0.1250000   0.5699060), wk =   0.0125000
        k(   36) = (   0.1250000   0.1250000  -0.7123824), wk =   0.0062500
        k(   37) = (   0.1250000   0.2500000   0.0000000), wk =   0.0125000
        k(   38) = (   0.1250000   0.2500000   0.1424765), wk =   0.0250000
        k(   39) = (   0.1250000   0.2500000   0.2849530), wk =   0.0250000
        k(   40) = (   0.1250000   0.2500000   0.4274295), wk =   0.0250000
        k(   41) = (   0.1250000   0.2500000   0.5699060), wk =   0.0250000
        k(   42) = (   0.1250000   0.2500000  -0.7123824), wk =   0.0125000
        k(   43) = (   0.1250000   0.3750000   0.0000000), wk =   0.0125000
        k(   44) = (   0.1250000   0.3750000   0.1424765), wk =   0.0250000
        k(   45) = (   0.1250000   0.3750000   0.2849530), wk =   0.0250000
        k(   46) = (   0.1250000   0.3750000   0.4274295), wk =   0.0250000
        k(   47) = (   0.1250000   0.3750000   0.5699060), wk =   0.0250000
        k(   48) = (   0.1250000   0.3750000  -0.7123824), wk =   0.0125000
        k(   49) = (   0.1250000  -0.5000000   0.0000000), wk =   0.0062500
        k(   50) = (   0.1250000  -0.5000000   0.1424765), wk =   0.0125000
        k(   51) = (   0.1250000  -0.5000000   0.2849530), wk =   0.0125000
        k(   52) = (   0.1250000  -0.5000000   0.4274295), wk =   0.0125000
        k(   53) = (   0.1250000  -0.5000000   0.5699060), wk =   0.0125000
        k(   54) = (   0.1250000  -0.5000000  -0.7123824), wk =   0.0062500
        k(   55) = (   0.2500000   0.2500000   0.0000000), wk =   0.0062500
        k(   56) = (   0.2500000   0.2500000   0.1424765), wk =   0.0125000
        k(   57) = (   0.2500000   0.2500000   0.2849530), wk =   0.0125000
        k(   58) = (   0.2500000   0.2500000   0.4274295), wk =   0.0125000
        k(   59) = (   0.2500000   0.2500000   0.5699060), wk =   0.0125000
        k(   60) = (   0.2500000   0.2500000  -0.7123824), wk =   0.0062500
        k(   61) = (   0.2500000   0.3750000   0.0000000), wk =   0.0125000
        k(   62) = (   0.2500000   0.3750000   0.1424765), wk =   0.0250000
        k(   63) = (   0.2500000   0.3750000   0.2849530), wk =   0.0250000
        k(   64) = (   0.2500000   0.3750000   0.4274295), wk =   0.0250000
        k(   65) = (   0.2500000   0.3750000   0.5699060), wk =   0.0250000
        k(   66) = (   0.2500000   0.3750000  -0.7123824), wk =   0.0125000
        k(   67) = (   0.2500000  -0.5000000   0.0000000), wk =   0.0062500
        k(   68) = (   0.2500000  -0.5000000   0.1424765), wk =   0.0125000
        k(   69) = (   0.2500000  -0.5000000   0.2849530), wk =   0.0125000
        k(   70) = (   0.2500000  -0.5000000   0.4274295), wk =   0.0125000
        k(   71) = (   0.2500000  -0.5000000   0.5699060), wk =   0.0125000
        k(   72) = (   0.2500000  -0.5000000  -0.7123824), wk =   0.0062500
        k(   73) = (   0.3750000   0.3750000   0.0000000), wk =   0.0062500
        k(   74) = (   0.3750000   0.3750000   0.1424765), wk =   0.0125000
        k(   75) = (   0.3750000   0.3750000   0.2849530), wk =   0.0125000
        k(   76) = (   0.3750000   0.3750000   0.4274295), wk =   0.0125000
        k(   77) = (   0.3750000   0.3750000   0.5699060), wk =   0.0125000
        k(   78) = (   0.3750000   0.3750000  -0.7123824), wk =   0.0062500
        k(   79) = (   0.3750000  -0.5000000   0.0000000), wk =   0.0062500
        k(   80) = (   0.3750000  -0.5000000   0.1424765), wk =   0.0125000
        k(   81) = (   0.3750000  -0.5000000   0.2849530), wk =   0.0125000
        k(   82) = (   0.3750000  -0.5000000   0.4274295), wk =   0.0125000
        k(   83) = (   0.3750000  -0.5000000   0.5699060), wk =   0.0125000
        k(   84) = (   0.3750000  -0.5000000  -0.7123824), wk =   0.0062500
        k(   85) = (  -0.5000000  -0.5000000   0.0000000), wk =   0.0015625
        k(   86) = (  -0.5000000  -0.5000000   0.1424765), wk =   0.0031250
        k(   87) = (  -0.5000000  -0.5000000   0.2849530), wk =   0.0031250
        k(   88) = (  -0.5000000  -0.5000000   0.4274295), wk =   0.0031250
        k(   89) = (  -0.5000000  -0.5000000   0.5699060), wk =   0.0031250
        k(   90) = (  -0.5000000  -0.5000000  -0.7123824), wk =   0.0015625

                       cryst. coord.
        k(    1) = (   0.0000000   0.0000000   0.0000000), wk =   0.0015625
        k(    2) = (   0.0000000   0.0000000   0.1000000), wk =   0.0031250
        k(    3) = (   0.0000000   0.0000000   0.2000000), wk =   0.0031250
        k(    4) = (   0.0000000   0.0000000   0.3000000), wk =   0.0031250
        k(    5) = (   0.0000000   0.0000000   0.4000000), wk =   0.0031250
        k(    6) = (   0.0000000   0.0000000  -0.5000000), wk =   0.0015625
        k(    7) = (   0.0000000   0.1250000   0.0000000), wk =   0.0062500
        k(    8) = (   0.0000000   0.1250000   0.1000000), wk =   0.0125000
        k(    9) = (   0.0000000   0.1250000   0.2000000), wk =   0.0125000
        k(   10) = (   0.0000000   0.1250000   0.3000000), wk =   0.0125000
        k(   11) = (   0.0000000   0.1250000   0.4000000), wk =   0.0125000
        k(   12) = (   0.0000000   0.1250000  -0.5000000), wk =   0.0062500
        k(   13) = (   0.0000000   0.2500000   0.0000000), wk =   0.0062500
        k(   14) = (   0.0000000   0.2500000   0.1000000), wk =   0.0125000
        k(   15) = (   0.0000000   0.2500000   0.2000000), wk =   0.0125000
        k(   16) = (   0.0000000   0.2500000   0.3000000), wk =   0.0125000
        k(   17) = (   0.0000000   0.2500000   0.4000000), wk =   0.0125000
        k(   18) = (   0.0000000   0.2500000  -0.5000000), wk =   0.0062500
        k(   19) = (   0.0000000   0.3750000   0.0000000), wk =   0.0062500
        k(   20) = (   0.0000000   0.3750000   0.1000000), wk =   0.0125000
        k(   21) = (   0.0000000   0.3750000   0.2000000), wk =   0.0125000
        k(   22) = (   0.0000000   0.3750000   0.3000000), wk =   0.0125000
        k(   23) = (   0.0000000   0.3750000   0.4000000), wk =   0.0125000
        k(   24) = (   0.0000000   0.3750000  -0.5000000), wk =   0.0062500
        k(   25) = (   0.0000000  -0.5000000   0.0000000), wk =   0.0031250
        k(   26) = (   0.0000000  -0.5000000   0.1000000), wk =   0.0062500
        k(   27) = (   0.0000000  -0.5000000   0.2000000), wk =   0.0062500
        k(   28) = (   0.0000000  -0.5000000   0.3000000), wk =   0.0062500
        k(   29) = (   0.0000000  -0.5000000   0.4000000), wk =   0.0062500
        k(   30) = (   0.0000000  -0.5000000  -0.5000000), wk =   0.0031250
        k(   31) = (   0.1250000   0.1250000   0.0000000), wk =   0.0062500
        k(   32) = (   0.1250000   0.1250000   0.1000000), wk =   0.0125000
        k(   33) = (   0.1250000   0.1250000   0.2000000), wk =   0.0125000
        k(   34) = (   0.1250000   0.1250000   0.3000000), wk =   0.0125000
        k(   35) = (   0.1250000   0.1250000   0.4000000), wk =   0.0125000
        k(   36) = (   0.1250000   0.1250000  -0.5000000), wk =   0.0062500
        k(   37) = (   0.1250000   0.2500000   0.0000000), wk =   0.0125000
        k(   38) = (   0.1250000   0.2500000   0.1000000), wk =   0.0250000
        k(   39) = (   0.1250000   0.2500000   0.2000000), wk =   0.0250000
        k(   40) = (   0.1250000   0.2500000   0.3000000), wk =   0.0250000
        k(   41) = (   0.1250000   0.2500000   0.4000000), wk =   0.0250000
        k(   42) = (   0.1250000   0.2500000  -0.5000000), wk =   0.0125000
        k(   43) = (   0.1250000   0.3750000   0.0000000), wk =   0.0125000
        k(   44) = (   0.1250000   0.3750000   0.1000000), wk =   0.0250000
        k(   45) = (   0.1250000   0.3750000   0.2000000), wk =   0.0250000
        k(   46) = (   0.1250000   0.3750000   0.3000000), wk =   0.0250000
        k(   47) = (   0.1250000   0.3750000   0.4000000), wk =   0.0250000
        k(   48) = (   0.1250000   0.3750000  -0.5000000), wk =   0.0125000
        k(   49) = (   0.1250000  -0.5000000   0.0000000), wk =   0.0062500
        k(   50) = (   0.1250000  -0.5000000   0.1000000), wk =   0.0125000
        k(   51) = (   0.1250000  -0.5000000   0.2000000), wk =   0.0125000
        k(   52) = (   0.1250000  -0.5000000   0.3000000), wk =   0.0125000
        k(   53) = (   0.1250000  -0.5000000   0.4000000), wk =   0.0125000
        k(   54) = (   0.1250000  -0.5000000  -0.5000000), wk =   0.0062500
        k(   55) = (   0.2500000   0.2500000   0.0000000), wk =   0.0062500
        k(   56) = (   0.2500000   0.2500000   0.1000000), wk =   0.0125000
        k(   57) = (   0.2500000   0.2500000   0.2000000), wk =   0.0125000
        k(   58) = (   0.2500000   0.2500000   0.3000000), wk =   0.0125000
        k(   59) = (   0.2500000   0.2500000   0.4000000), wk =   0.0125000
        k(   60) = (   0.2500000   0.2500000  -0.5000000), wk =   0.0062500
        k(   61) = (   0.2500000   0.3750000   0.0000000), wk =   0.0125000
        k(   62) = (   0.2500000   0.3750000   0.1000000), wk =   0.0250000
        k(   63) = (   0.2500000   0.3750000   0.2000000), wk =   0.0250000
        k(   64) = (   0.2500000   0.3750000   0.3000000), wk =   0.0250000
        k(   65) = (   0.2500000   0.3750000   0.4000000), wk =   0.0250000
        k(   66) = (   0.2500000   0.3750000  -0.5000000), wk =   0.0125000
        k(   67) = (   0.2500000  -0.5000000   0.0000000), wk =   0.0062500
        k(   68) = (   0.2500000  -0.5000000   0.1000000), wk =   0.0125000
        k(   69) = (   0.2500000  -0.5000000   0.2000000), wk =   0.0125000
        k(   70) = (   0.2500000  -0.5000000   0.3000000), wk =   0.0125000
        k(   71) = (   0.2500000  -0.5000000   0.4000000), wk =   0.0125000
        k(   72) = (   0.2500000  -0.5000000  -0.5000000), wk =   0.0062500
        k(   73) = (   0.3750000   0.3750000   0.0000000), wk =   0.0062500
        k(   74) = (   0.3750000   0.3750000   0.1000000), wk =   0.0125000
        k(   75) = (   0.3750000   0.3750000   0.2000000), wk =   0.0125000
        k(   76) = (   0.3750000   0.3750000   0.3000000), wk =   0.0125000
        k(   77) = (   0.3750000   0.3750000   0.4000000), wk =   0.0125000
        k(   78) = (   0.3750000   0.3750000  -0.5000000), wk =   0.0062500
        k(   79) = (   0.3750000  -0.5000000   0.0000000), wk =   0.0062500
        k(   80) = (   0.3750000  -0.5000000   0.1000000), wk =   0.0125000
        k(   81) = (   0.3750000  -0.5000000   0.2000000), wk =   0.0125000
        k(   82) = (   0.3750000  -0.5000000   0.3000000), wk =   0.0125000
        k(   83) = (   0.3750000  -0.5000000   0.4000000), wk =   0.0125000
        k(   84) = (   0.3750000  -0.5000000  -0.5000000), wk =   0.0062500
        k(   85) = (  -0.5000000  -0.5000000   0.0000000), wk =   0.0015625
        k(   86) = (  -0.5000000  -0.5000000   0.1000000), wk =   0.0031250
        k(   87) = (  -0.5000000  -0.5000000   0.2000000), wk =   0.0031250
        k(   88) = (  -0.5000000  -0.5000000   0.3000000), wk =   0.0031250
        k(   89) = (  -0.5000000  -0.5000000   0.4000000), wk =   0.0031250
        k(   90) = (  -0.5000000  -0.5000000  -0.5000000), wk =   0.0015625

     Dense  grid:    42999 G-vectors     FFT dimensions: (  50,  50,  36)

     Dynamical RAM for                 wfc:       0.36 MB

     Dynamical RAM for     wfc (w. buffer):      32.46 MB

     Dynamical RAM for           str. fact:       0.04 MB

     Dynamical RAM for           local pot:       0.00 MB

     Dynamical RAM for          nlocal pot:       0.46 MB

     Dynamical RAM for                qrad:      20.10 MB

     Dynamical RAM for          rho,v,vnew:       0.70 MB

     Dynamical RAM for               rhoin:       0.23 MB

     Dynamical RAM for            rho*nmix:       1.31 MB

     Dynamical RAM for           G-vectors:       0.09 MB

     Dynamical RAM for          h,s,v(r/c):       0.04 MB

     Dynamical RAM for          <psi|beta>:       0.38 MB

     Dynamical RAM for                 psi:       0.71 MB

     Dynamical RAM for                hpsi:       0.71 MB

     Dynamical RAM for      wfcinit/wfcrot:       0.67 MB

     Estimated static dynamical RAM per process >      54.45 MB

     Estimated max dynamical RAM per process >      57.62 MB

     Estimated total dynamical RAM >       1.80 GB

     Initial potential from superposition of free atoms

     starting charge      57.9997, renormalised to      58.0000
     Starting wfcs are   72 randomized atomic wfcs

     total cpu time spent up to now is        4.8 secs

     Self-consistent Calculation

     iteration #  1     ecut=    80.00 Ry     beta= 0.70
     Davidson diagonalization with overlap

---- Real-time Memory Report at c_bands before calling an iterative solver
           110 MiB given to the printing process from OS
             0 MiB allocation reported by mallinfo(arena+hblkhd)
        227973 MiB available memory on the node where the printing process lives
------------------
     ethr =  1.00E-02,  avg # of iterations =  2.8

     total cpu time spent up to now is       20.4 secs

     total energy              =    -552.42668552 Ry
     estimated scf accuracy    <       1.21455708 Ry

     iteration #  2     ecut=    80.00 Ry     beta= 0.70
     Davidson diagonalization with overlap

---- Real-time Memory Report at c_bands before calling an iterative solver
           116 MiB given to the printing process from OS
             0 MiB allocation reported by mallinfo(arena+hblkhd)
        227843 MiB available memory on the node where the printing process lives
------------------
     ethr =  2.09E-03,  avg # of iterations =  2.0

     total cpu time spent up to now is       37.3 secs

     total energy              =    -552.28718195 Ry
     estimated scf accuracy    <       4.26352880 Ry

     iteration #  3     ecut=    80.00 Ry     beta= 0.70
     Davidson diagonalization with overlap

---- Real-time Memory Report at c_bands before calling an iterative solver
           121 MiB given to the printing process from OS
             0 MiB allocation reported by mallinfo(arena+hblkhd)
        227772 MiB available memory on the node where the printing process lives
------------------
     ethr =  2.09E-03,  avg # of iterations =  2.0

     total cpu time spent up to now is       53.2 secs

     total energy              =    -553.07608323 Ry
     estimated scf accuracy    <       0.03284362 Ry

     iteration #  4     ecut=    80.00 Ry     beta= 0.70
     Davidson diagonalization with overlap

---- Real-time Memory Report at c_bands before calling an iterative solver
           122 MiB given to the printing process from OS
             0 MiB allocation reported by mallinfo(arena+hblkhd)
        227750 MiB available memory on the node where the printing process lives
------------------
     ethr =  5.66E-05,  avg # of iterations =  2.8

     total cpu time spent up to now is       69.6 secs

     total energy              =    -553.07968430 Ry
     estimated scf accuracy    <       0.00465995 Ry

     iteration #  5     ecut=    80.00 Ry     beta= 0.70
     Davidson diagonalization with overlap

---- Real-time Memory Report at c_bands before calling an iterative solver
           123 MiB given to the printing process from OS
             0 MiB allocation reported by mallinfo(arena+hblkhd)
        227747 MiB available memory on the node where the printing process lives
------------------
     c_bands:  1 eigenvalues not converged
     ethr =  8.03E-06,  avg # of iterations =  3.2

     total cpu time spent up to now is       84.4 secs

     total energy              =    -553.08048192 Ry
     estimated scf accuracy    <       0.00024016 Ry

     iteration #  6     ecut=    80.00 Ry     beta= 0.70
     Davidson diagonalization with overlap

---- Real-time Memory Report at c_bands before calling an iterative solver
           124 MiB given to the printing process from OS
             0 MiB allocation reported by mallinfo(arena+hblkhd)
        227741 MiB available memory on the node where the printing process lives
------------------
     ethr =  4.14E-07,  avg # of iterations =  2.8

     total cpu time spent up to now is       99.0 secs

     total energy              =    -553.08051372 Ry
     estimated scf accuracy    <       0.00000853 Ry

     iteration #  7     ecut=    80.00 Ry     beta= 0.70
     Davidson diagonalization with overlap

---- Real-time Memory Report at c_bands before calling an iterative solver
           124 MiB given to the printing process from OS
             0 MiB allocation reported by mallinfo(arena+hblkhd)
        227739 MiB available memory on the node where the printing process lives
------------------
     ethr =  1.47E-08,  avg # of iterations =  2.0

     total cpu time spent up to now is      115.7 secs

     total energy              =    -553.08051666 Ry
     estimated scf accuracy    <       0.00000057 Ry

     iteration #  8     ecut=    80.00 Ry     beta= 0.70
     Davidson diagonalization with overlap

---- Real-time Memory Report at c_bands before calling an iterative solver
           127 MiB given to the printing process from OS
             0 MiB allocation reported by mallinfo(arena+hblkhd)
        227695 MiB available memory on the node where the printing process lives
------------------
     ethr =  9.84E-10,  avg # of iterations =  2.3

     total cpu time spent up to now is      129.9 secs

     total energy              =    -553.08051670 Ry
     estimated scf accuracy    <       0.00000008 Ry

     iteration #  9     ecut=    80.00 Ry     beta= 0.70
     Davidson diagonalization with overlap

---- Real-time Memory Report at c_bands before calling an iterative solver
           127 MiB given to the printing process from OS
             0 MiB allocation reported by mallinfo(arena+hblkhd)
        227696 MiB available memory on the node where the printing process lives
------------------
     ethr =  1.29E-10,  avg # of iterations =  2.3

     total cpu time spent up to now is      145.9 secs

     total energy              =    -553.08051671 Ry
     estimated scf accuracy    <          4.2E-09 Ry

     iteration # 10     ecut=    80.00 Ry     beta= 0.70
     Davidson diagonalization with overlap

---- Real-time Memory Report at c_bands before calling an iterative solver
           127 MiB given to the printing process from OS
             0 MiB allocation reported by mallinfo(arena+hblkhd)
        227680 MiB available memory on the node where the printing process lives
------------------
     ethr =  7.27E-12,  avg # of iterations =  2.5

     total cpu time spent up to now is      162.0 secs

     End of self-consistent calculation

          k = 0.0000 0.0000 0.0000 (  5409 PWs)   bands (ev):

   -79.3825 -79.3825 -79.3812 -79.3812 -46.2250 -46.2250 -46.2143 -46.2143
   -32.7641 -32.7641 -32.7538 -32.7538 -32.6207 -32.6207 -32.6059 -32.6059
    -7.0756  -7.0756  -5.9199  -5.9199  -5.0050  -5.0050  -4.8035  -4.8035
     4.2682   4.2682   4.5154   4.5154   6.0326   6.0326   6.1440   6.1440
     6.2581   6.2581   8.7848   8.7848   8.9367   8.9367   9.1943   9.1943
    10.3316  10.3316  10.9866  10.9866  10.9913  10.9913  11.0291  11.0291
    11.2058  11.2058  11.3872  11.3872  11.6446  11.6446  11.6734  11.6734
    12.0594  12.0594  14.6460  14.6460  15.0725  15.0725  17.6883  17.6883
    17.8964  17.8964  18.0454  18.0454  19.4475  19.4475

     occupation numbers 
     1.0000   1.0000   1.0000   1.0000   1.0000   1.0000   1.0000   1.0000
     1.0000   1.0000   1.0000   1.0000   1.0000   1.0000   1.0000   1.0000
     1.0000   1.0000   1.0000   1.0000   1.0000   1.0000   1.0000   1.0000
     1.0000   1.0000   1.0000   1.0000   1.0000   1.0000   1.0000   1.0000
     1.0000   1.0000   1.0000   1.0000   1.0000   1.0000   1.0000   1.0000
     1.0000   1.0000   1.0000   1.0000   1.0000   1.0000   1.0000   1.0000
     1.0000   1.0000   1.0000   1.0000   1.0000   1.0000   1.0000   1.0000
     1.0000   1.0000  -0.0000  -0.0000  -0.0000  -0.0000  -0.0000  -0.0000
    -0.0000  -0.0000  -0.0000  -0.0000  -0.0000  -0.0000

          k = 0.0000 0.0000 0.1425 (  5357 PWs)   bands (ev):

   -79.3823 -79.3823 -79.3810 -79.3810 -46.2258 -46.2258 -46.2156 -46.2156
   -32.7663 -32.7663 -32.7592 -32.7592 -32.6247 -32.6247 -32.6079 -32.6079
    -6.9842  -6.9842  -5.8719  -5.8719  -5.0482  -5.0482  -4.8613  -4.8613
     4.4010   4.4010   4.6117   4.6117   6.1123   6.1123   6.1987   6.1987
     6.3546   6.3546   8.4230   8.4230   9.0124   9.0124   9.2648   9.2648
     9.7518   9.7518  10.2950  10.2950  10.4141  10.4141  11.3641  11.3641
    11.5539  11.5539  11.5996  11.5996  11.6407  11.6407  12.1819  12.1819
    12.3176  12.3176  14.8627  14.8627  14.9781  14.9781  17.4485  17.4485
    17.7723  17.7723  18.1690  18.1690  19.2582  19.2582

     occupation numbers 
     1.0000   1.0000   1.0000   1.0000   1.0000   1.0000   1.0000   1.0000
     1.0000   1.0000   1.0000   1.0000   1.0000   1.0000   1.0000   1.0000
     1.0000   1.0000   1.0000   1.0000   1.0000   1.0000   1.0000   1.0000
     1.0000   1.0000   1.0000   1.0000   1.0000   1.0000   1.0000   1.0000
     1.0000   1.0000   1.0000   1.0000   1.0000   1.0000   1.0000   1.0000
     1.0000   1.0000   1.0000   1.0000   1.0000   1.0000   1.0000   1.0000
     1.0000   1.0000   1.0000   1.0000   1.0000   1.0000   1.0000   1.0000
     1.0000   1.0000  -0.0000  -0.0000  -0.0000  -0.0000  -0.0000  -0.0000
    -0.0000  -0.0000  -0.0000  -0.0000  -0.0000  -0.0000

          k = 0.0000 0.0000 0.2850 (  5373 PWs)   bands (ev):

   -79.3816 -79.3816 -79.3805 -79.3805 -46.2279 -46.2279 -46.2192 -46.2192
   -32.7742 -32.7742 -32.7741 -32.7741 -32.6329 -32.6329 -32.6126 -32.6126
    -6.7310  -6.7310  -5.7554  -5.7554  -5.1568  -5.1568  -5.0099  -5.0099
     4.7779   4.7779   4.8740   4.8740   6.3277   6.3277   6.3573   6.3573
     6.6429   6.6429   7.6448   7.6448   8.7326   8.7326   9.3118   9.3118
     9.3267   9.3267   9.6816   9.6816   9.7463   9.7463  10.9205  10.9205
    11.7541  11.7541  11.8122  11.8122  12.0438  12.0438  12.8736  12.8736
    12.8996  12.8996  14.7081  14.7081  15.3750  15.3750  16.9201  16.9201
    17.2198  17.2198  18.3303  18.3303  19.3513  19.3513

     occupation numbers 
     1.0000   1.0000   1.0000   1.0000   1.0000   1.0000   1.0000   1.0000
     1.0000   1.0000   1.0000   1.0000   1.0000   1.0000   1.0000   1.0000
     1.0000   1.0000   1.0000   1.0000   1.0000   1.0000   1.0000   1.0000
     1.0000   1.0000   1.0000   1.0000   1.0000   1.0000   1.0000   1.0000
     1.0000   1.0000   1.0000   1.0000   1.0000   1.0000   1.0000   1.0000
     1.0000   1.0000   1.0000   1.0000   1.0000   1.0000   1.0000   1.0000
     1.0000   1.0000   1.0000   1.0000   1.0000   1.0000   1.0000   1.0000
     1.0000   1.0000  -0.0000  -0.0000  -0.0000  -0.0000  -0.0000  -0.0000
    -0.0000  -0.0000  -0.0000  -0.0000  -0.0000  -0.0000

          k = 0.0000 0.0000 0.4274 (  5397 PWs)   bands (ev):

   -79.3807 -79.3807 -79.3800 -79.3800 -46.2301 -46.2301 -46.2238 -46.2238
   -32.7930 -32.7930 -32.7887 -32.7887 -32.6375 -32.6375 -32.6182 -32.6182
    -6.3758  -6.3758  -5.6442  -5.6442  -5.2798  -5.2798  -5.1901  -5.1901
     5.2196   5.2196   5.3189   5.3189   6.5645   6.5645   6.6220   6.6220
     6.9328   6.9328   7.1150   7.1150   7.8795   7.8795   8.8416   8.8416
     9.0171   9.0171   9.5725   9.5725   9.8527   9.8527  10.2052  10.2052
    11.8014  11.8014  12.1369  12.1369  12.1963  12.1963  13.4337  13.4337
    13.4785  13.4785  14.3188  14.3188  15.8681  15.8681  16.4472  16.4472
    16.7365  16.7365  17.6115  17.6115  20.4613  20.4613

     occupation numbers 
     1.0000   1.0000   1.0000   1.0000   1.0000   1.0000   1.0000   1.0000
     1.0000   1.0000   1.0000   1.0000   1.0000   1.0000   1.0000   1.0000
     1.0000   1.0000   1.0000   1.0000   1.0000   1.0000   1.0000   1.0000
     1.0000   1.0000   1.0000   1.0000   1.0000   1.0000   1.0000   1.0000
     1.0000   1.0000   1.0000   1.0000   1.0000   1.0000   1.0000   1.0000
     1.0000   1.0000   1.0000   1.0000   1.0000   1.0000   1.0000   1.0000
     1.0000   1.0000   1.0000   1.0000   1.0000   1.0000   1.0000   1.0000
     1.0000   1.0000  -0.0000  -0.0000  -0.0000  -0.0000  -0.0000  -0.0000
    -0.0000  -0.0000  -0.0000  -0.0000  -0.0000  -0.0000

          k = 0.0000 0.0000 0.5699 (  5405 PWs)   bands (ev):

   -79.3800 -79.3800 -79.3796 -79.3796 -46.2315 -46.2315 -46.2281 -46.2281
   -32.8081 -32.8081 -32.8044 -32.8044 -32.6359 -32.6359 -32.6242 -32.6242
    -6.0094  -6.0094  -5.6211  -5.6211  -5.3698  -5.3698  -5.3375  -5.3375
     5.5251   5.5251   5.7821   5.7821   6.4192   6.4192   6.9170   6.9170
     6.9578   6.9578   7.2043   7.2043   7.7601   7.7601   8.3820   8.3820
     8.4954   8.4954   9.3763   9.3763   9.8094   9.8094   9.9761   9.9761
    11.7953  11.7953  12.0991  12.0991  12.5777  12.5777  13.5403  13.5403
    13.9157  13.9157  14.0919  14.0919  16.0825  16.0825  16.1805  16.1805
    16.5285  16.5285  16.9508  16.9508  21.7321  21.7321

     occupation numbers 
     1.0000   1.0000   1.0000   1.0000   1.0000   1.0000   1.0000   1.0000
     1.0000   1.0000   1.0000   1.0000   1.0000   1.0000   1.0000   1.0000
     1.0000   1.0000   1.0000   1.0000   1.0000   1.0000   1.0000   1.0000
     1.0000   1.0000   1.0000   1.0000   1.0000   1.0000   1.0000   1.0000
     1.0000   1.0000   1.0000   1.0000   1.0000   1.0000   1.0000   1.0000
     1.0000   1.0000   1.0000   1.0000   1.0000   1.0000   1.0000   1.0000
     1.0000   1.0000   1.0000   1.0000   1.0000   1.0000   1.0000   1.0000
     0.0316   0.0316  -0.0000  -0.0000  -0.0000  -0.0000  -0.0000  -0.0000
    -0.0000  -0.0000  -0.0000  -0.0000  -0.0000  -0.0000

          k = 0.0000 0.0000-0.7124 (  5314 PWs)   bands (ev):

   -79.3795 -79.3795 -79.3795 -79.3795 -46.2309 -46.2309 -46.2309 -46.2309
   -32.8125 -32.8125 -32.8125 -32.8125 -32.6305 -32.6305 -32.6305 -32.6305
    -5.7351  -5.7351  -5.7351  -5.7351  -5.4023  -5.4023  -5.4023  -5.4023
     5.7324   5.7324   5.7324   5.7324   6.7016   6.7016   6.7016   6.7016
     7.0974   7.0974   7.0974   7.0974   8.2008   8.2008   8.2008   8.2008
     8.5513   8.5513   8.5513   8.5513   9.9558   9.9558   9.9558   9.9558
    11.8965  11.8965  11.8965  11.8965  13.0831  13.0831  13.0831  13.0831
    14.1199  14.1199  14.1199  14.1199  16.0945  16.0945  16.0945  16.0945
    16.6097  16.6097  16.6097  16.6097  22.9230  22.9230

     occupation numbers 
     1.0000   1.0000   1.0000   1.0000   1.0000   1.0000   1.0000   1.0000
     1.0000   1.0000   1.0000   1.0000   1.0000   1.0000   1.0000   1.0000
     1.0000   1.0000   1.0000   1.0000   1.0000   1.0000   1.0000   1.0000
     1.0000   1.0000   1.0000   1.0000   1.0000   1.0000   1.0000   1.0000
     1.0000   1.0000   1.0000   1.0000   1.0000   1.0000   1.0000   1.0000
     1.0000   1.0000   1.0000   1.0000   1.0000   1.0000   1.0000   1.0000
     1.0000   1.0000   1.0000   1.0000   1.0000   1.0000   1.0000   1.0000
    -0.0000  -0.0000  -0.0000  -0.0000  -0.0000  -0.0000  -0.0000  -0.0000
    -0.0000  -0.0000  -0.0000  -0.0000  -0.0000  -0.0000

          k = 0.0000 0.1250 0.0000 (  5381 PWs)   bands (ev):

   -79.3825 -79.3825 -79.3813 -79.3813 -46.2246 -46.2246 -46.2147 -46.2147
   -32.7633 -32.7633 -32.7537 -32.7537 -32.6206 -32.6206 -32.6070 -32.6070
    -7.0166  -7.0166  -5.9124  -5.9124  -5.0559  -5.0559  -4.8632  -4.8632
     4.4188   4.4188   4.6289   4.6289   6.0556   6.0556   6.1576   6.1576
     6.3555   6.3555   8.7090   8.7090   8.7131   8.7131   8.9784   8.9784
    10.0145  10.0145  10.4799  10.4799  10.7571  10.7571  11.3482  11.3482
    11.4290  11.4290  11.5479  11.5479  11.7108  11.7108  11.8482  11.8482
    12.2608  12.2608  14.8813  14.8813  14.9773  14.9773  17.6294  17.6294
    17.9613  17.9613  18.1686  18.1686  19.3062  19.3062

     occupation numbers 
     1.0000   1.0000   1.0000   1.0000   1.0000   1.0000   1.0000   1.0000
     1.0000   1.0000   1.0000   1.0000   1.0000   1.0000   1.0000   1.0000
     1.0000   1.0000   1.0000   1.0000   1.0000   1.0000   1.0000   1.0000
     1.0000   1.0000   1.0000   1.0000   1.0000   1.0000   1.0000   1.0000
     1.0000   1.0000   1.0000   1.0000   1.0000   1.0000   1.0000   1.0000
     1.0000   1.0000   1.0000   1.0000   1.0000   1.0000   1.0000   1.0000
     1.0000   1.0000   1.0000   1.0000   1.0000   1.0000   1.0000   1.0000
     1.0000   1.0000  -0.0000  -0.0000  -0.0000  -0.0000  -0.0000  -0.0000
    -0.0000  -0.0000  -0.0000  -0.0000  -0.0000  -0.0000

          k = 0.0000 0.1250 0.1425 (  5372 PWs)   bands (ev):

   -79.3822 -79.3822 -79.3811 -79.3811 -46.2255 -46.2255 -46.2160 -46.2160
   -32.7662 -32.7662 -32.7585 -32.7585 -32.6247 -32.6247 -32.6089 -32.6089
    -6.9269  -6.9269  -5.8623  -5.8623  -5.0979  -5.0979  -4.9182  -4.9182
     4.5421   4.5421   4.7242   4.7242   6.1216   6.1216   6.2002   6.2002
     6.4780   6.4780   8.3340   8.3340   8.7882   8.7882   9.0496   9.0496
     9.5026   9.5026  10.2586  10.2586  10.3195  10.3195  11.3668  11.3668
    11.5122  11.5122  11.7807  11.7807  11.8268  11.8268  12.2141  12.2141
    12.4721  12.4721  14.8591  14.8591  15.1056  15.1056  17.3463  17.3463
    17.6626  17.6626  18.4878  18.4878  19.1453  19.1453

     occupation numbers 
     1.0000   1.0000   1.0000   1.0000   1.0000   1.0000   1.0000   1.0000
     1.0000   1.0000   1.0000   1.0000   1.0000   1.0000   1.0000   1.0000
     1.0000   1.0000   1.0000   1.0000   1.0000   1.0000   1.0000   1.0000
     1.0000   1.0000   1.0000   1.0000   1.0000   1.0000   1.0000   1.0000
     1.0000   1.0000   1.0000   1.0000   1.0000   1.0000   1.0000   1.0000
     1.0000   1.0000   1.0000   1.0000   1.0000   1.0000   1.0000   1.0000
     1.0000   1.0000   1.0000   1.0000   1.0000   1.0000   1.0000   1.0000
     1.0000   1.0000  -0.0000  -0.0000  -0.0000  -0.0000  -0.0000  -0.0000
    -0.0000  -0.0000  -0.0000  -0.0000  -0.0000  -0.0000

          k = 0.0000 0.1250 0.2850 (  5378 PWs)   bands (ev):

   -79.3816 -79.3816 -79.3806 -79.3806 -46.2276 -46.2276 -46.2195 -46.2195
   -32.7777 -32.7777 -32.7701 -32.7701 -32.6328 -32.6328 -32.6133 -32.6133
    -6.6793  -6.6793  -5.7413  -5.7413  -5.2022  -5.2022  -5.0580  -5.0580
     4.8867   4.8867   4.9837   4.9837   6.3079   6.3079   6.3549   6.3549
     6.8037   6.8037   7.5613   7.5613   8.4262   8.4262   9.0858   9.0858
     9.3882   9.3882   9.6341   9.6341   9.7206   9.7206  11.0563  11.0563
    11.5629  11.5629  11.9967  11.9967  12.1817  12.1817  12.8060  12.8060
    12.9856  12.9856  14.6166  14.6166  15.5675  15.5675  16.7725  16.7725
    17.1060  17.1060  18.4982  18.4982  19.4614  19.4614

     occupation numbers 
     1.0000   1.0000   1.0000   1.0000   1.0000   1.0000   1.0000   1.0000
     1.0000   1.0000   1.0000   1.0000   1.0000   1.0000   1.0000   1.0000
     1.0000   1.0000   1.0000   1.0000   1.0000   1.0000   1.0000   1.0000
     1.0000   1.0000   1.0000   1.0000   1.0000   1.0000   1.0000   1.0000
     1.0000   1.0000   1.0000   1.0000   1.0000   1.0000   1.0000   1.0000
     1.0000   1.0000   1.0000   1.0000   1.0000   1.0000   1.0000   1.0000
     1.0000   1.0000   1.0000   1.0000   1.0000   1.0000   1.0000   1.0000
     1.0000   1.0000  -0.0000  -0.0000  -0.0000  -0.0000  -0.0000  -0.0000
    -0.0000  -0.0000  -0.0000  -0.0000  -0.0000  -0.0000

          k = 0.0000 0.1250 0.4274 (  5387 PWs)   bands (ev):

   -79.3807 -79.3807 -79.3800 -79.3800 -46.2299 -46.2299 -46.2241 -46.2241
   -32.7963 -32.7963 -32.7854 -32.7854 -32.6376 -32.6376 -32.6185 -32.6185
    -6.3361  -6.3361  -5.6339  -5.6339  -5.3133  -5.3133  -5.2187  -5.2187
     5.2985   5.2985   5.3895   5.3895   6.4611   6.4611   6.6215   6.6215
     6.9385   6.9385   7.3089   7.3089   7.6411   7.6411   8.9008   8.9008
     9.0721   9.0721   9.4720   9.4720   9.6817   9.6817  10.3692  10.3692
    11.8291  11.8291  12.0580  12.0580  12.2682  12.2682  13.3013  13.3013
    13.5206  13.5206  14.3006  14.3006  15.9403  15.9403  16.2355  16.2355
    16.7036  16.7036  17.8804  17.8804  20.5783  20.5783

     occupation numbers 
     1.0000   1.0000   1.0000   1.0000   1.0000   1.0000   1.0000   1.0000
     1.0000   1.0000   1.0000   1.0000   1.0000   1.0000   1.0000   1.0000
     1.0000   1.0000   1.0000   1.0000   1.0000   1.0000   1.0000   1.0000
     1.0000   1.0000   1.0000   1.0000   1.0000   1.0000   1.0000   1.0000
     1.0000   1.0000   1.0000   1.0000   1.0000   1.0000   1.0000   1.0000
     1.0000   1.0000   1.0000   1.0000   1.0000   1.0000   1.0000   1.0000
     1.0000   1.0000   1.0000   1.0000   1.0000   1.0000   1.0000   1.0000
     1.0000   1.0000  -0.0000  -0.0000  -0.0000  -0.0000  -0.0000  -0.0000
    -0.0000  -0.0000  -0.0000  -0.0000  -0.0000  -0.0000

          k = 0.0000 0.1250 0.5699 (  5376 PWs)   bands (ev):

   -79.3800 -79.3800 -79.3796 -79.3796 -46.2314 -46.2314 -46.2282 -46.2282
   -32.8123 -32.8123 -32.8003 -32.8003 -32.6366 -32.6366 -32.6235 -32.6235
    -5.9930  -5.9930  -5.6365  -5.6365  -5.3915  -5.3915  -5.3161  -5.3161
     5.5736   5.5736   5.8117   5.8117   6.1942   6.1942   6.7151   6.7151
     7.1530   7.1530   7.2616   7.2616   7.9389   7.9389   8.3972   8.3972
     8.5779   8.5779   9.4847   9.4847   9.7581   9.7581   9.8579   9.8579
    11.8411  11.8411  12.1064  12.1064  12.4137  12.4137  13.3283  13.3283
    13.9015  13.9015  14.2124  14.2124  15.8132  15.8132  15.9218  15.9218
    16.7863  16.7863  17.3772  17.3772  21.7986  21.7986

     occupation numbers 
     1.0000   1.0000   1.0000   1.0000   1.0000   1.0000   1.0000   1.0000
     1.0000   1.0000   1.0000   1.0000   1.0000   1.0000   1.0000   1.0000
     1.0000   1.0000   1.0000   1.0000   1.0000   1.0000   1.0000   1.0000
     1.0000   1.0000   1.0000   1.0000   1.0000   1.0000   1.0000   1.0000
     1.0000   1.0000   1.0000   1.0000   1.0000   1.0000   1.0000   1.0000
     1.0000   1.0000   1.0000   1.0000   1.0000   1.0000   1.0000   1.0000
     1.0000   1.0000   1.0000   1.0000   1.0000   1.0000   1.0000   1.0000
     0.1204   0.1204  -0.0000  -0.0000  -0.0000  -0.0000  -0.0000  -0.0000
    -0.0000  -0.0000  -0.0000  -0.0000  -0.0000  -0.0000

          k = 0.0000 0.1250-0.7124 (  5384 PWs)   bands (ev):

   -79.3795 -79.3795 -79.3795 -79.3795 -46.2313 -46.2313 -46.2305 -46.2305
   -32.8185 -32.8185 -32.8066 -32.8066 -32.6343 -32.6343 -32.6266 -32.6266
    -5.7591  -5.7591  -5.7430  -5.7430  -5.4229  -5.4229  -5.3442  -5.3442
     5.7245   5.7245   5.7670   5.7670   6.3627   6.3627   6.4497   6.4497
     7.3725   7.3725   7.3927   7.3927   8.1269   8.1269   8.2739   8.2739
     8.7068   8.7068   8.7517   8.7517   9.8386   9.8386   9.8731   9.8731
    11.8833  11.8833  11.9139  11.9139  12.8096  12.8096  12.9898  12.9898
    14.0424  14.0424  14.2890  14.2890  15.7008  15.7008  15.8065  15.8065
    16.9444  16.9444  17.1373  17.1373  22.9271  22.9410

     occupation numbers 
     1.0000   1.0000   1.0000   1.0000   1.0000   1.0000   1.0000   1.0000
     1.0000   1.0000   1.0000   1.0000   1.0000   1.0000   1.0000   1.0000
     1.0000   1.0000   1.0000   1.0000   1.0000   1.0000   1.0000   1.0000
     1.0000   1.0000   1.0000   1.0000   1.0000   1.0000   1.0000   1.0000
     1.0000   1.0000   1.0000   1.0000   1.0000   1.0000   1.0000   1.0000
     1.0000   1.0000   1.0000   1.0000   1.0000   1.0000   1.0000   1.0000
     1.0000   1.0000   1.0000   1.0000   1.0000   1.0000   1.0000   1.0000
    -0.0008  -0.0008  -0.0000  -0.0000  -0.0000  -0.0000  -0.0000  -0.0000
    -0.0000  -0.0000  -0.0000  -0.0000  -0.0000  -0.0000

          k = 0.0000 0.2500 0.0000 (  5376 PWs)   bands (ev):

   -79.3823 -79.3823 -79.3814 -79.3814 -46.2235 -46.2235 -46.2159 -46.2159
   -32.7610 -32.7610 -32.7537 -32.7537 -32.6204 -32.6204 -32.6100 -32.6100
    -6.8464  -6.8464  -5.9155  -5.9155  -5.1928  -5.1928  -4.9976  -4.9976
     4.8230   4.8230   4.9485   4.9485   6.1116   6.1116   6.1915   6.1915
     6.6498   6.6498   8.1677   8.1677   8.3480   8.3480   8.6745   8.6745
     9.5079   9.5079   9.6435   9.6435  10.6099  10.6099  11.3625  11.3625
    11.7031  11.7031  11.8065  11.8065  12.0460  12.0460  12.2047  12.2047
    12.6425  12.6425  14.6158  14.6158  15.5912  15.5912  17.4703  17.4703
    17.7503  17.7503  18.8472  18.8472  18.9361  18.9361

     occupation numbers 
     1.0000   1.0000   1.0000   1.0000   1.0000   1.0000   1.0000   1.0000
     1.0000   1.0000   1.0000   1.0000   1.0000   1.0000   1.0000   1.0000
     1.0000   1.0000   1.0000   1.0000   1.0000   1.0000   1.0000   1.0000
     1.0000   1.0000   1.0000   1.0000   1.0000   1.0000   1.0000   1.0000
     1.0000   1.0000   1.0000   1.0000   1.0000   1.0000   1.0000   1.0000
     1.0000   1.0000   1.0000   1.0000   1.0000   1.0000   1.0000   1.0000
     1.0000   1.0000   1.0000   1.0000   1.0000   1.0000   1.0000   1.0000
     1.0000   1.0000  -0.0000  -0.0000  -0.0000  -0.0000  -0.0000  -0.0000
    -0.0000  -0.0000  -0.0000  -0.0000  -0.0000  -0.0000

          k = 0.0000 0.2500 0.1425 (  5363 PWs)   bands (ev):

   -79.3821 -79.3821 -79.3812 -79.3812 -46.2244 -46.2244 -46.2171 -46.2171
   -32.7658 -32.7658 -32.7569 -32.7569 -32.6245 -32.6245 -32.6115 -32.6115
    -6.7613  -6.7613  -5.8571  -5.8571  -5.2351  -5.2351  -5.0454  -5.0454
     4.9225   4.9225   5.0437   5.0437   6.1609   6.1609   6.2205   6.2205
     6.7856   6.7856   8.1832   8.1832   8.2610   8.2610   8.5241   8.5241
     8.9238   8.9238   9.8078   9.8078  10.4238  10.4238  11.2515  11.2515
    11.7101  11.7101  11.9993  11.9993  12.1479  12.1479  12.4074  12.4074
    12.7990  12.7990  14.5440  14.5440  15.7224  15.7224  17.1371  17.1371
    17.4493  17.4493  18.7969  18.7969  19.2204  19.2204

     occupation numbers 
     1.0000   1.0000   1.0000   1.0000   1.0000   1.0000   1.0000   1.0000
     1.0000   1.0000   1.0000   1.0000   1.0000   1.0000   1.0000   1.0000
     1.0000   1.0000   1.0000   1.0000   1.0000   1.0000   1.0000   1.0000
     1.0000   1.0000   1.0000   1.0000   1.0000   1.0000   1.0000   1.0000
     1.0000   1.0000   1.0000   1.0000   1.0000   1.0000   1.0000   1.0000
     1.0000   1.0000   1.0000   1.0000   1.0000   1.0000   1.0000   1.0000
     1.0000   1.0000   1.0000   1.0000   1.0000   1.0000   1.0000   1.0000
     1.0000   1.0000  -0.0000  -0.0000  -0.0000  -0.0000  -0.0000  -0.0000
    -0.0000  -0.0000  -0.0000  -0.0000  -0.0000  -0.0000

          k = 0.0000 0.2500 0.2850 (  5374 PWs)   bands (ev):

   -79.3814 -79.3814 -79.3807 -79.3807 -46.2266 -46.2266 -46.2205 -46.2205
   -32.7803 -32.7803 -32.7663 -32.7663 -32.6325 -32.6325 -32.6152 -32.6152
    -6.5299  -6.5299  -5.7137  -5.7137  -5.3394  -5.3394  -5.1635  -5.1635
     5.1879   5.1879   5.2932   5.2932   6.3159   6.3159   6.3700   6.3700
     7.0715   7.0715   7.4928   7.4928   7.9028   7.9028   8.5626   8.5626
     8.8614   8.8614   9.6507   9.6507   9.9465   9.9465  11.1130  11.1130
    11.4836  11.4836  12.3007  12.3007  12.3996  12.3996  12.7322  12.7322
    13.1764  13.1764  14.3654  14.3654  16.0046  16.0046  16.4701  16.4701
    16.9481  16.9481  18.5365  18.5365  19.9667  19.9667

     occupation numbers 
     1.0000   1.0000   1.0000   1.0000   1.0000   1.0000   1.0000   1.0000
     1.0000   1.0000   1.0000   1.0000   1.0000   1.0000   1.0000   1.0000
     1.0000   1.0000   1.0000   1.0000   1.0000   1.0000   1.0000   1.0000
     1.0000   1.0000   1.0000   1.0000   1.0000   1.0000   1.0000   1.0000
     1.0000   1.0000   1.0000   1.0000   1.0000   1.0000   1.0000   1.0000
     1.0000   1.0000   1.0000   1.0000   1.0000   1.0000   1.0000   1.0000
     1.0000   1.0000   1.0000   1.0000   1.0000   1.0000   1.0000   1.0000
     1.0000   1.0000  -0.0000  -0.0000  -0.0000  -0.0000  -0.0000  -0.0000
    -0.0000  -0.0000  -0.0000  -0.0000  -0.0000  -0.0000

          k = 0.0000 0.2500 0.4274 (  5374 PWs)   bands (ev):

   -79.3806 -79.3806 -79.3801 -79.3801 -46.2293 -46.2293 -46.2247 -46.2247
   -32.8001 -32.8001 -32.7811 -32.7811 -32.6376 -32.6376 -32.6191 -32.6191
    -6.2223  -6.2223  -5.6085  -5.6085  -5.4200  -5.4200  -5.2810  -5.2810
     5.5088   5.5088   5.5956   5.5956   6.3248   6.3248   6.6014   6.6014
     6.9676   6.9676   7.1986   7.1986   7.7036   7.7036   8.6885   8.6885
     9.0918   9.0918   9.3090   9.3090   9.5953   9.5953  10.7396  10.7396
    11.4789  11.4789  12.2394  12.2394  12.3973  12.3973  12.9976  12.9976
    13.6288  13.6288  14.2360  14.2360  15.7900  15.7900  15.9577  15.9577
    16.9613  16.9613  18.2061  18.2061  20.9515  20.9515

     occupation numbers 
     1.0000   1.0000   1.0000   1.0000   1.0000   1.0000   1.0000   1.0000
     1.0000   1.0000   1.0000   1.0000   1.0000   1.0000   1.0000   1.0000
     1.0000   1.0000   1.0000   1.0000   1.0000   1.0000   1.0000   1.0000
     1.0000   1.0000   1.0000   1.0000   1.0000   1.0000   1.0000   1.0000
     1.0000   1.0000   1.0000   1.0000   1.0000   1.0000   1.0000   1.0000
     1.0000   1.0000   1.0000   1.0000   1.0000   1.0000   1.0000   1.0000
     1.0000   1.0000   1.0000   1.0000   1.0000   1.0000   1.0000   1.0000
     1.0000   1.0000  -0.0000  -0.0000  -0.0000  -0.0000  -0.0000  -0.0000
    -0.0000  -0.0000  -0.0000  -0.0000  -0.0000  -0.0000

          k = 0.0000 0.2500 0.5699 (  5366 PWs)   bands (ev):

   -79.3799 -79.3799 -79.3796 -79.3796 -46.2312 -46.2312 -46.2285 -46.2285
   -32.8170 -32.8170 -32.7957 -32.7957 -32.6382 -32.6382 -32.6221 -32.6221
    -5.9478  -5.9478  -5.6792  -5.6792  -5.4156  -5.4156  -5.2932  -5.2932
     5.6710   5.6710   5.8391   5.8391   5.9756   5.9756   6.4071   6.4071
     7.2535   7.2535   7.4677   7.4677   8.1129   8.1129   8.5777   8.5777
     8.8123   8.8123   9.3698   9.3698   9.5989   9.5989  10.0646  10.0646
    11.7755  11.7755  12.0621  12.0621  12.1715  12.1715  12.8659  12.8659
    13.9645  13.9645  14.3316  14.3316  15.4103  15.4103  15.5929  15.5929
    17.3210  17.3210  17.9283  17.9283  22.0050  22.0050

     occupation numbers 
     1.0000   1.0000   1.0000   1.0000   1.0000   1.0000   1.0000   1.0000
     1.0000   1.0000   1.0000   1.0000   1.0000   1.0000   1.0000   1.0000
     1.0000   1.0000   1.0000   1.0000   1.0000   1.0000   1.0000   1.0000
     1.0000   1.0000   1.0000   1.0000   1.0000   1.0000   1.0000   1.0000
     1.0000   1.0000   1.0000   1.0000   1.0000   1.0000   1.0000   1.0000
     1.0000   1.0000   1.0000   1.0000   1.0000   1.0000   1.0000   1.0000
     1.0000   1.0000   1.0000   1.0000   1.0000   1.0000   1.0000   1.0000
    -0.0301  -0.0301  -0.0000  -0.0000  -0.0000  -0.0000  -0.0000  -0.0000
    -0.0000  -0.0000  -0.0000  -0.0000  -0.0000  -0.0000

          k = 0.0000 0.2500-0.7124 (  5356 PWs)   bands (ev):

   -79.3795 -79.3795 -79.3795 -79.3795 -46.2316 -46.2316 -46.2302 -46.2302
   -32.8236 -32.8236 -32.8017 -32.8017 -32.6375 -32.6375 -32.6234 -32.6234
    -5.7924  -5.7924  -5.7789  -5.7789  -5.4065  -5.4065  -5.2774  -5.2774
     5.6571   5.6571   5.7449   5.7449   6.1044   6.1044   6.2224   6.2224
     7.5926   7.5926   7.7326   7.7326   8.1160   8.1160   8.3408   8.3408
     9.1519   9.1519   9.2088   9.2088   9.6335   9.6335   9.6592   9.6592
    11.8603  11.8603  11.8848  11.8848  12.2953  12.2953  12.6048  12.6048
    14.0838  14.0838  14.4232  14.4232  15.3323  15.3323  15.3979  15.3979
    17.5523  17.5523  17.7520  17.7520  22.9729  22.9741

     occupation numbers 
     1.0000   1.0000   1.0000   1.0000   1.0000   1.0000   1.0000   1.0000
     1.0000   1.0000   1.0000   1.0000   1.0000   1.0000   1.0000   1.0000
     1.0000   1.0000   1.0000   1.0000   1.0000   1.0000   1.0000   1.0000
     1.0000   1.0000   1.0000   1.0000   1.0000   1.0000   1.0000   1.0000
     1.0000   1.0000   1.0000   1.0000   1.0000   1.0000   1.0000   1.0000
     1.0000   1.0000   1.0000   1.0000   1.0000   1.0000   1.0000   1.0000
     1.0000   1.0000   1.0000   1.0000   1.0000   1.0000   1.0000   1.0000
    -0.0000  -0.0000  -0.0000  -0.0000  -0.0000  -0.0000  -0.0000  -0.0000
    -0.0000  -0.0000  -0.0000  -0.0000  -0.0000  -0.0000

          k = 0.0000 0.3750 0.0000 (  5370 PWs)   bands (ev):

   -79.3821 -79.3821 -79.3816 -79.3816 -46.2218 -46.2218 -46.2176 -46.2176
   -32.7582 -32.7582 -32.7543 -32.7543 -32.6193 -32.6193 -32.6137 -32.6137
    -6.5865  -6.5865  -6.0222  -6.0222  -5.3004  -5.3004  -5.1436  -5.1436
     5.3264   5.3264   5.3923   5.3923   6.1825   6.1825   6.2265   6.2265
     7.1109   7.1109   7.6070   7.6070   7.6994   7.6994   8.6149   8.6149
     8.7366   8.7366   9.0796   9.0796  10.6459  10.6459  11.0914  11.0914
    11.9792  11.9792  12.0853  12.0853  12.3118  12.3118  12.4782  12.4782
    13.1132  13.1132  14.1569  14.1569  16.4651  16.4651  17.3193  17.3193
    17.5149  17.5149  18.2494  18.2494  19.8281  19.8281

     occupation numbers 
     1.0000   1.0000   1.0000   1.0000   1.0000   1.0000   1.0000   1.0000
     1.0000   1.0000   1.0000   1.0000   1.0000   1.0000   1.0000   1.0000
     1.0000   1.0000   1.0000   1.0000   1.0000   1.0000   1.0000   1.0000
     1.0000   1.0000   1.0000   1.0000   1.0000   1.0000   1.0000   1.0000
     1.0000   1.0000   1.0000   1.0000   1.0000   1.0000   1.0000   1.0000
     1.0000   1.0000   1.0000   1.0000   1.0000   1.0000   1.0000   1.0000
     1.0000   1.0000   1.0000   1.0000   1.0000   1.0000   1.0000   1.0000
     1.0000   1.0000  -0.0000  -0.0000  -0.0000  -0.0000  -0.0000  -0.0000
    -0.0000  -0.0000  -0.0000  -0.0000  -0.0000  -0.0000

          k = 0.0000 0.3750 0.1425 (  5369 PWs)   bands (ev):

   -79.3819 -79.3819 -79.3814 -79.3814 -46.2227 -46.2227 -46.2188 -46.2188
   -32.7654 -32.7654 -32.7554 -32.7554 -32.6238 -32.6238 -32.6146 -32.6146
    -6.5082  -6.5082  -5.9536  -5.9536  -5.3437  -5.3437  -5.1841  -5.1841
     5.4087   5.4087   5.4992   5.4992   6.1888   6.1888   6.2342   6.2342
     7.2101   7.2101   7.7123   7.7123   7.8540   7.8540   8.2470   8.2470
     8.3043   8.3043   9.1466   9.1466  10.6376  10.6376  11.0771  11.0771
    11.9278  11.9278  12.0568  12.0568  12.4997  12.4997  12.6641  12.6641
    13.1786  13.1786  14.1099  14.1099  16.4756  16.4756  16.9737  16.9737
    17.2472  17.2472  18.2416  18.2416  20.1308  20.1308

     occupation numbers 
     1.0000   1.0000   1.0000   1.0000   1.0000   1.0000   1.0000   1.0000
     1.0000   1.0000   1.0000   1.0000   1.0000   1.0000   1.0000   1.0000
     1.0000   1.0000   1.0000   1.0000   1.0000   1.0000   1.0000   1.0000
     1.0000   1.0000   1.0000   1.0000   1.0000   1.0000   1.0000   1.0000
     1.0000   1.0000   1.0000   1.0000   1.0000   1.0000   1.0000   1.0000
     1.0000   1.0000   1.0000   1.0000   1.0000   1.0000   1.0000   1.0000
     1.0000   1.0000   1.0000   1.0000   1.0000   1.0000   1.0000   1.0000
     1.0000   1.0000  -0.0000  -0.0000  -0.0000  -0.0000  -0.0000  -0.0000
    -0.0000  -0.0000  -0.0000  -0.0000  -0.0000  -0.0000

          k = 0.0000 0.3750 0.2850 (  5382 PWs)   bands (ev):

   -79.3813 -79.3813 -79.3809 -79.3809 -46.2253 -46.2253 -46.2218 -46.2218
   -32.7819 -32.7819 -32.7635 -32.7635 -32.6320 -32.6320 -32.6173 -32.6173
    -6.3007  -6.3007  -5.7777  -5.7777  -5.4528  -5.4528  -5.2796  -5.2796
     5.6072   5.6072   5.7263   5.7263   6.2983   6.2983   6.4074   6.4074
     7.0328   7.0328   7.3969   7.3969   7.8854   7.8854   8.0574   8.0574
     8.3118   8.3118   9.2439   9.2439  10.3099  10.3099  10.8357  10.8357
    11.8518  11.8518  12.3017  12.3017  12.6002  12.6002  12.8567  12.8567
    13.3861  13.3861  14.0544  14.0544  16.1412  16.1412  16.3160  16.3160
    17.1306  17.1306  18.2288  18.2288  20.7826  20.7826

     occupation numbers 
     1.0000   1.0000   1.0000   1.0000   1.0000   1.0000   1.0000   1.0000
     1.0000   1.0000   1.0000   1.0000   1.0000   1.0000   1.0000   1.0000
     1.0000   1.0000   1.0000   1.0000   1.0000   1.0000   1.0000   1.0000
     1.0000   1.0000   1.0000   1.0000   1.0000   1.0000   1.0000   1.0000
     1.0000   1.0000   1.0000   1.0000   1.0000   1.0000   1.0000   1.0000
     1.0000   1.0000   1.0000   1.0000   1.0000   1.0000   1.0000   1.0000
     1.0000   1.0000   1.0000   1.0000   1.0000   1.0000   1.0000   1.0000
     1.0000   1.0000  -0.0003  -0.0003  -0.0000  -0.0000  -0.0000  -0.0000
    -0.0000  -0.0000  -0.0000  -0.0000  -0.0000  -0.0000

          k = 0.0000 0.3750 0.4274 (  5371 PWs)   bands (ev):

   -79.3805 -79.3805 -79.3802 -79.3802 -46.2284 -46.2284 -46.2256 -46.2256
   -32.8027 -32.8027 -32.7782 -32.7782 -32.6376 -32.6376 -32.6198 -32.6198
    -6.0493  -6.0493  -5.6467  -5.6467  -5.5166  -5.5166  -5.3487  -5.3487
     5.7879   5.7879   5.8812   5.8812   6.2530   6.2530   6.5429   6.5429
     6.7723   6.7723   7.0173   7.0173   8.0494   8.0494   8.4769   8.4769
     8.7220   8.7220   9.1996   9.1996   9.9076   9.9076  10.7437  10.7437
    11.4511  11.4511  12.2673  12.2673  12.4635  12.4635  12.8056  12.8056
    13.7143  13.7143  14.1801  14.1801  15.5309  15.5309  15.7270  15.7270
    17.4684  17.4684  18.2414  18.2414  21.5685  21.5685

     occupation numbers 
     1.0000   1.0000   1.0000   1.0000   1.0000   1.0000   1.0000   1.0000
     1.0000   1.0000   1.0000   1.0000   1.0000   1.0000   1.0000   1.0000
     1.0000   1.0000   1.0000   1.0000   1.0000   1.0000   1.0000   1.0000
     1.0000   1.0000   1.0000   1.0000   1.0000   1.0000   1.0000   1.0000
     1.0000   1.0000   1.0000   1.0000   1.0000   1.0000   1.0000   1.0000
     1.0000   1.0000   1.0000   1.0000   1.0000   1.0000   1.0000   1.0000
     1.0000   1.0000   1.0000   1.0000   1.0000   1.0000   1.0000   1.0000
     1.0035   1.0035  -0.0000  -0.0000  -0.0000  -0.0000  -0.0000  -0.0000
    -0.0000  -0.0000  -0.0000  -0.0000  -0.0000  -0.0000

          k = 0.0000 0.3750 0.5699 (  5365 PWs)   bands (ev):

   -79.3798 -79.3798 -79.3797 -79.3797 -46.2309 -46.2309 -46.2288 -46.2288
   -32.8202 -32.8202 -32.7926 -32.7926 -32.6395 -32.6395 -32.6209 -32.6209
    -5.8833  -5.8833  -5.7404  -5.7404  -5.4294  -5.4294  -5.2813  -5.2813
     5.6637   5.6637   5.7429   5.7429   6.0711   6.0711   6.2392   6.2392
     7.2475   7.2475   7.6838   7.6838   8.1145   8.1145   8.7891   8.7891
     8.9777   8.9777   9.0736   9.0736   9.7216   9.7216  10.5885  10.5885
    11.2680  11.2680  11.9434  11.9434  12.1006  12.1006  12.4974  12.4974
    14.0246  14.0246  14.4008  14.4008  15.1633  15.1633  15.3199  15.3199
    17.8437  17.8437  18.2529  18.2529  22.3699  22.3699

     occupation numbers 
     1.0000   1.0000   1.0000   1.0000   1.0000   1.0000   1.0000   1.0000
     1.0000   1.0000   1.0000   1.0000   1.0000   1.0000   1.0000   1.0000
     1.0000   1.0000   1.0000   1.0000   1.0000   1.0000   1.0000   1.0000
     1.0000   1.0000   1.0000   1.0000   1.0000   1.0000   1.0000   1.0000
     1.0000   1.0000   1.0000   1.0000   1.0000   1.0000   1.0000   1.0000
     1.0000   1.0000   1.0000   1.0000   1.0000   1.0000   1.0000   1.0000
     1.0000   1.0000   1.0000   1.0000   1.0000   1.0000   1.0000   1.0000
    -0.0024  -0.0024  -0.0000  -0.0000  -0.0000  -0.0000  -0.0000  -0.0000
    -0.0000  -0.0000  -0.0000  -0.0000  -0.0000  -0.0000

          k = 0.0000 0.3750-0.7124 (  5360 PWs)   bands (ev):

   -79.3795 -79.3795 -79.3795 -79.3795 -46.2318 -46.2318 -46.2300 -46.2300
   -32.8271 -32.8271 -32.7986 -32.7986 -32.6396 -32.6396 -32.6212 -32.6212
    -5.8177  -5.8177  -5.8138  -5.8138  -5.3822  -5.3822  -5.2275  -5.2275
     5.5113   5.5113   5.5672   5.5672   6.1570   6.1570   6.1998   6.1998
     7.5779   7.5779   7.9816   7.9816   8.3017   8.3017   8.4465   8.4465
     9.1189   9.1189   9.1392   9.1392  10.0241  10.0241  10.0635  10.0635
    11.5313  11.5313  11.6162  11.6162  11.9047  11.9047  12.2994  12.2994
    14.1390  14.1390  14.4897  14.4897  15.0992  15.0992  15.1458  15.1458
    18.0391  18.0391  18.2198  18.2198  23.0652  23.0689

     occupation numbers 
     1.0000   1.0000   1.0000   1.0000   1.0000   1.0000   1.0000   1.0000
     1.0000   1.0000   1.0000   1.0000   1.0000   1.0000   1.0000   1.0000
     1.0000   1.0000   1.0000   1.0000   1.0000   1.0000   1.0000   1.0000
     1.0000   1.0000   1.0000   1.0000   1.0000   1.0000   1.0000   1.0000
     1.0000   1.0000   1.0000   1.0000   1.0000   1.0000   1.0000   1.0000
     1.0000   1.0000   1.0000   1.0000   1.0000   1.0000   1.0000   1.0000
     1.0000   1.0000   1.0000   1.0000   1.0000   1.0000   1.0000   1.0000
    -0.0000  -0.0000  -0.0000  -0.0000  -0.0000  -0.0000  -0.0000  -0.0000
    -0.0000  -0.0000  -0.0000  -0.0000  -0.0000  -0.0000

          k = 0.0000-0.5000 0.0000 (  5380 PWs)   bands (ev):

   -79.3819 -79.3819 -79.3819 -79.3819 -46.2197 -46.2197 -46.2197 -46.2197
   -32.7558 -32.7558 -32.7558 -32.7558 -32.6171 -32.6171 -32.6171 -32.6171
    -6.2818  -6.2818  -6.2818  -6.2818  -5.2650  -5.2650  -5.2650  -5.2650
     5.6286   5.6286   5.6286   5.6286   6.2393   6.2393   6.2393   6.2393
     7.2627   7.2627   7.2627   7.2627   7.8910   7.8910   7.8910   7.8910
     8.7695   8.7695   8.7695   8.7695  10.8266  10.8266  10.8266  10.8266
    12.1248  12.1248  12.1248  12.1248  12.5039  12.5039  12.5039  12.5039
    13.6380  13.6380  13.6380  13.6380  17.2189  17.2189  17.2189  17.2189
    17.5172  17.5172  17.5172  17.5172  20.7710  20.7710

     occupation numbers 
     1.0000   1.0000   1.0000   1.0000   1.0000   1.0000   1.0000   1.0000
     1.0000   1.0000   1.0000   1.0000   1.0000   1.0000   1.0000   1.0000
     1.0000   1.0000   1.0000   1.0000   1.0000   1.0000   1.0000   1.0000
     1.0000   1.0000   1.0000   1.0000   1.0000   1.0000   1.0000   1.0000
     1.0000   1.0000   1.0000   1.0000   1.0000   1.0000   1.0000   1.0000
     1.0000   1.0000   1.0000   1.0000   1.0000   1.0000   1.0000   1.0000
     1.0000   1.0000   1.0000   1.0000   1.0000   1.0000   1.0000   1.0000
     1.0000   1.0000   1.0000   1.0000  -0.0000  -0.0000  -0.0000  -0.0000
    -0.0000  -0.0000  -0.0000  -0.0000  -0.0000  -0.0000

          k = 0.0000-0.5000 0.1425 (  5380 PWs)   bands (ev):

   -79.3816 -79.3816 -79.3816 -79.3816 -46.2211 -46.2211 -46.2205 -46.2205
   -32.7652 -32.7652 -32.7547 -32.7547 -32.6232 -32.6232 -32.6162 -32.6162
    -6.2213  -6.2213  -6.1975  -6.1975  -5.3154  -5.3154  -5.2922  -5.2922
     5.7089   5.7089   5.7946   5.7946   6.1753   6.1753   6.1837   6.1837
     7.4442   7.4442   7.4858   7.4858   7.7436   7.7436   7.7707   7.7707
     8.4993   8.4993   8.6160   8.6160  10.8502  10.8502  10.8770  10.8770
    12.0400  12.0400  12.0495  12.0495  12.6541  12.6541  12.7678  12.7678
    13.5287  13.5287  13.7214  13.7214  16.7751  16.7751  16.9856  16.9856
    17.5061  17.5061  17.5896  17.5896  21.0400  21.0424

     occupation numbers 
     1.0000   1.0000   1.0000   1.0000   1.0000   1.0000   1.0000   1.0000
     1.0000   1.0000   1.0000   1.0000   1.0000   1.0000   1.0000   1.0000
     1.0000   1.0000   1.0000   1.0000   1.0000   1.0000   1.0000   1.0000
     1.0000   1.0000   1.0000   1.0000   1.0000   1.0000   1.0000   1.0000
     1.0000   1.0000   1.0000   1.0000   1.0000   1.0000   1.0000   1.0000
     1.0000   1.0000   1.0000   1.0000   1.0000   1.0000   1.0000   1.0000
     1.0000   1.0000   1.0000   1.0000   1.0000   1.0000   1.0000   1.0000
     1.0000   1.0000   1.0051   1.0051  -0.0000  -0.0000  -0.0000  -0.0000
    -0.0000  -0.0000  -0.0000  -0.0000  -0.0000  -0.0000

          k = 0.0000-0.5000 0.2850 (  5378 PWs)   bands (ev):

   -79.3811 -79.3811 -79.3811 -79.3811 -46.2241 -46.2241 -46.2230 -46.2230
   -32.7824 -32.7824 -32.7625 -32.7625 -32.6317 -32.6317 -32.6183 -32.6183
    -6.0430  -6.0430  -6.0062  -6.0062  -5.4209  -5.4209  -5.3670  -5.3670
     5.9167   5.9167   6.0187   6.0187   6.2610   6.2610   6.3035   6.3035
     7.0673   7.0673   7.0734   7.0734   7.8905   7.8905   7.9072   7.9072
     8.5866   8.5866   8.6414   8.6414  10.6044  10.6044  10.6065  10.6065
    12.0946  12.0946  12.1614  12.1614  12.7149  12.7149  12.9341  12.9341
    13.4926  13.4926  13.8835  13.8835  16.0852  16.0852  16.2446  16.2446
    17.6833  17.6833  17.7223  17.7223  21.6369  21.6484

     occupation numbers 
     1.0000   1.0000   1.0000   1.0000   1.0000   1.0000   1.0000   1.0000
     1.0000   1.0000   1.0000   1.0000   1.0000   1.0000   1.0000   1.0000
     1.0000   1.0000   1.0000   1.0000   1.0000   1.0000   1.0000   1.0000
     1.0000   1.0000   1.0000   1.0000   1.0000   1.0000   1.0000   1.0000
     1.0000   1.0000   1.0000   1.0000   1.0000   1.0000   1.0000   1.0000
     1.0000   1.0000   1.0000   1.0000   1.0000   1.0000   1.0000   1.0000
     1.0000   1.0000   1.0000   1.0000   1.0000   1.0000   1.0000   1.0000
     1.0000   1.0000   0.2937   0.2937  -0.0000  -0.0000  -0.0000  -0.0000
    -0.0000  -0.0000  -0.0000  -0.0000  -0.0000  -0.0000

          k = 0.0000-0.5000 0.4274 (  5380 PWs)   bands (ev):

   -79.3803 -79.3803 -79.3803 -79.3803 -46.2278 -46.2278 -46.2262 -46.2262
   -32.8036 -32.8036 -32.7771 -32.7771 -32.6376 -32.6376 -32.6200 -32.6200
    -5.8500  -5.8500  -5.8348  -5.8348  -5.5005  -5.5005  -5.3882  -5.3882
     5.9952   5.9952   6.0259   6.0259   6.2956   6.2956   6.3265   6.3265
     6.7289   6.7289   6.9329   6.9329   8.2323   8.2323   8.2481   8.2481
     8.8753   8.8753   8.9311   8.9311  10.2939  10.2939  10.3346  10.3346
    11.8629  11.8629  11.9194  11.9194  12.5138  12.5138  12.7991  12.7991
    13.7408  13.7408  14.1686  14.1686  15.4858  15.4858  15.5637  15.5637
    17.8975  17.8975  18.0154  18.0154  22.3058  22.3154

     occupation numbers 
     1.0000   1.0000   1.0000   1.0000   1.0000   1.0000   1.0000   1.0000
     1.0000   1.0000   1.0000   1.0000   1.0000   1.0000   1.0000   1.0000
     1.0000   1.0000   1.0000   1.0000   1.0000   1.0000   1.0000   1.0000
     1.0000   1.0000   1.0000   1.0000   1.0000   1.0000   1.0000   1.0000
     1.0000   1.0000   1.0000   1.0000   1.0000   1.0000   1.0000   1.0000
     1.0000   1.0000   1.0000   1.0000   1.0000   1.0000   1.0000   1.0000
     1.0000   1.0000   1.0000   1.0000   1.0000   1.0000   1.0000   1.0000
     1.0128   1.0128  -0.0000  -0.0000  -0.0000  -0.0000  -0.0000  -0.0000
    -0.0000  -0.0000  -0.0000  -0.0000  -0.0000  -0.0000

          k = 0.0000-0.5000 0.5699 (  5376 PWs)   bands (ev):

   -79.3798 -79.3798 -79.3798 -79.3798 -46.2308 -46.2308 -46.2289 -46.2289
   -32.8214 -32.8214 -32.7915 -32.7915 -32.6399 -32.6399 -32.6205 -32.6205
    -5.8123  -5.8123  -5.8097  -5.8097  -5.4336  -5.4336  -5.2781  -5.2781
     5.6447   5.6447   5.6824   5.6824   6.1738   6.1738   6.1837   6.1837
     7.2734   7.2734   7.6371   7.6371   8.4703   8.4703   8.4707   8.4707
     8.9247   8.9247   9.0515   9.0515  10.3401  10.3401  10.3760  10.3760
    11.4082  11.4082  11.4284  11.4284  12.1177  12.1177  12.4297  12.4297
    14.0475  14.0475  14.4236  14.4236  15.1455  15.1455  15.1495  15.1495
    18.1283  18.1283  18.2856  18.2856  22.8954  22.9013

     occupation numbers 
     1.0000   1.0000   1.0000   1.0000   1.0000   1.0000   1.0000   1.0000
     1.0000   1.0000   1.0000   1.0000   1.0000   1.0000   1.0000   1.0000
     1.0000   1.0000   1.0000   1.0000   1.0000   1.0000   1.0000   1.0000
     1.0000   1.0000   1.0000   1.0000   1.0000   1.0000   1.0000   1.0000
     1.0000   1.0000   1.0000   1.0000   1.0000   1.0000   1.0000   1.0000
     1.0000   1.0000   1.0000   1.0000   1.0000   1.0000   1.0000   1.0000
     1.0000   1.0000   1.0000   1.0000   1.0000   1.0000   1.0000   1.0000
    -0.0005  -0.0005  -0.0000  -0.0000  -0.0000  -0.0000  -0.0000  -0.0000
    -0.0000  -0.0000  -0.0000  -0.0000  -0.0000  -0.0000

          k = 0.0000-0.5000-0.7124 (  5360 PWs)   bands (ev):

   -79.3795 -79.3795 -79.3795 -79.3795 -46.2319 -46.2319 -46.2299 -46.2299
   -32.8283 -32.8283 -32.7974 -32.7974 -32.6404 -32.6404 -32.6204 -32.6204
    -5.8274  -5.8274  -5.8269  -5.8269  -5.3718  -5.3718  -5.2092  -5.2092
     5.4434   5.4434   5.4864   5.4864   6.2133   6.2133   6.2154   6.2154
     7.5319   7.5319   8.0724   8.0724   8.4805   8.4805   8.6293   8.6293
     8.8384   8.8384   8.9342   8.9342  10.6100  10.6100  10.6215  10.6215
    11.0376  11.0376  11.0517  11.0517  11.9029  11.9029  12.2309  12.2309
    14.1607  14.1607  14.5047  14.5047  15.0197  15.0197  15.0656  15.0656
    18.2275  18.2275  18.3968  18.3968  23.1346  23.2219

     occupation numbers 
     1.0000   1.0000   1.0000   1.0000   1.0000   1.0000   1.0000   1.0000
     1.0000   1.0000   1.0000   1.0000   1.0000   1.0000   1.0000   1.0000
     1.0000   1.0000   1.0000   1.0000   1.0000   1.0000   1.0000   1.0000
     1.0000   1.0000   1.0000   1.0000   1.0000   1.0000   1.0000   1.0000
     1.0000   1.0000   1.0000   1.0000   1.0000   1.0000   1.0000   1.0000
     1.0000   1.0000   1.0000   1.0000   1.0000   1.0000   1.0000   1.0000
     1.0000   1.0000   1.0000   1.0000   1.0000   1.0000   1.0000   1.0000
    -0.0000  -0.0000  -0.0000  -0.0000  -0.0000  -0.0000  -0.0000  -0.0000
    -0.0000  -0.0000  -0.0000  -0.0000  -0.0000  -0.0000

          k = 0.1250 0.1250 0.0000 (  5367 PWs)   bands (ev):

   -79.3824 -79.3824 -79.3813 -79.3813 -46.2243 -46.2243 -46.2151 -46.2151
   -32.7626 -32.7626 -32.7537 -32.7537 -32.6206 -32.6206 -32.6079 -32.6079
    -6.9635  -6.9635  -5.9086  -5.9086  -5.1228  -5.1228  -4.8858  -4.8858
     4.3801   4.3801   4.9030   4.9030   6.0584   6.0584   6.1803   6.1803
     6.4516   6.4516   8.2574   8.2574   8.6830   8.6830   9.0390   9.0390
     9.9207   9.9207  10.3940  10.3940  10.5457  10.5457  11.1513  11.1513
    11.4915  11.4915  11.5910  11.5910  11.8925  11.8925  12.0308  12.0308
    12.4492  12.4492  14.8590  14.8590  15.0551  15.0551  17.5397  17.5397
    17.9380  17.9380  18.4596  18.4596  19.1592  19.1592

     occupation numbers 
     1.0000   1.0000   1.0000   1.0000   1.0000   1.0000   1.0000   1.0000
     1.0000   1.0000   1.0000   1.0000   1.0000   1.0000   1.0000   1.0000
     1.0000   1.0000   1.0000   1.0000   1.0000   1.0000   1.0000   1.0000
     1.0000   1.0000   1.0000   1.0000   1.0000   1.0000   1.0000   1.0000
     1.0000   1.0000   1.0000   1.0000   1.0000   1.0000   1.0000   1.0000
     1.0000   1.0000   1.0000   1.0000   1.0000   1.0000   1.0000   1.0000
[...]
     1.0000   1.0000   1.0000   1.0000   1.0000   1.0000   1.0000   1.0000
     1.0000   1.0000   1.0054   1.0054  -0.0000  -0.0000  -0.0000  -0.0000
    -0.0000  -0.0000  -0.0000  -0.0000  -0.0000  -0.0000

          k = 0.3750-0.5000-0.7124 (  5372 PWs)   bands (ev):

   -79.3795 -79.3795 -79.3795 -79.3795 -46.2313 -46.2313 -46.2306 -46.2306
   -32.8187 -32.8187 -32.8068 -32.8068 -32.6348 -32.6348 -32.6271 -32.6271
    -5.6957  -5.6957  -5.6527  -5.6527  -5.4903  -5.4903  -5.3847  -5.3847
     5.6887   5.6887   5.7721   5.7721   6.0062   6.0062   6.2444   6.2444
     6.8428   6.8428   6.9512   6.9512   8.2114   8.2114   8.3074   8.3074
     9.6128   9.6128   9.6185   9.6185  10.6162  10.6162  10.6238  10.6238
    11.8745  11.8745  11.9286  11.9286  12.2390  12.2390  12.5440  12.5440
    13.5266  13.5266  13.7990  13.7990  15.7992  15.7992  15.8006  15.8006
    17.3016  17.3016  17.3629  17.3629  23.1092  23.1094

     occupation numbers 
     1.0000   1.0000   1.0000   1.0000   1.0000   1.0000   1.0000   1.0000
     1.0000   1.0000   1.0000   1.0000   1.0000   1.0000   1.0000   1.0000
     1.0000   1.0000   1.0000   1.0000   1.0000   1.0000   1.0000   1.0000
     1.0000   1.0000   1.0000   1.0000   1.0000   1.0000   1.0000   1.0000
     1.0000   1.0000   1.0000   1.0000   1.0000   1.0000   1.0000   1.0000
     1.0000   1.0000   1.0000   1.0000   1.0000   1.0000   1.0000   1.0000
     1.0000   1.0000   1.0000   1.0000   1.0000   1.0000   1.0000   1.0000
     1.0000   1.0000   1.0240   1.0240  -0.0000  -0.0000  -0.0000  -0.0000
    -0.0000  -0.0000  -0.0000  -0.0000  -0.0000  -0.0000

          k =-0.5000-0.5000 0.0000 (  5412 PWs)   bands (ev):

   -79.3819 -79.3819 -79.3819 -79.3819 -46.2197 -46.2197 -46.2197 -46.2197
   -32.7585 -32.7585 -32.7585 -32.7585 -32.6147 -32.6147 -32.6147 -32.6147
    -6.4134  -6.4134  -6.4134  -6.4134  -5.0376  -5.0376  -5.0376  -5.0376
     4.3992   4.3992   4.3992   4.3992   6.0112   6.0112   6.0112   6.0112
     8.7365   8.7365   8.7365   8.7365   8.7770   8.7770   8.7770   8.7770
     9.5933   9.5933   9.5933   9.5933  10.3588  10.3588  10.3588  10.3588
    11.1222  11.1222  11.1222  11.1222  11.7474  11.7474  11.7474  11.7474
    14.0534  14.0534  14.0534  14.0534  16.2369  16.2369  16.2369  16.2369
    17.9268  17.9268  17.9268  17.9268  22.3945  22.8027

     occupation numbers 
     1.0000   1.0000   1.0000   1.0000   1.0000   1.0000   1.0000   1.0000
     1.0000   1.0000   1.0000   1.0000   1.0000   1.0000   1.0000   1.0000
     1.0000   1.0000   1.0000   1.0000   1.0000   1.0000   1.0000   1.0000
     1.0000   1.0000   1.0000   1.0000   1.0000   1.0000   1.0000   1.0000
     1.0000   1.0000   1.0000   1.0000   1.0000   1.0000   1.0000   1.0000
     1.0000   1.0000   1.0000   1.0000   1.0000   1.0000   1.0000   1.0000
     1.0000   1.0000   1.0000   1.0000   1.0000   1.0000   1.0000   1.0000
    -0.0004  -0.0004  -0.0004  -0.0004  -0.0000  -0.0000  -0.0000  -0.0000
    -0.0000  -0.0000  -0.0000  -0.0000  -0.0000  -0.0000

          k =-0.5000-0.5000 0.1425 (  5404 PWs)   bands (ev):

   -79.3816 -79.3816 -79.3816 -79.3816 -46.2208 -46.2208 -46.2208 -46.2208
   -32.7624 -32.7624 -32.7624 -32.7624 -32.6176 -32.6176 -32.6176 -32.6176
    -6.3405  -6.3405  -6.3405  -6.3405  -5.0845  -5.0845  -5.0845  -5.0845
     4.5062   4.5062   4.5062   4.5062   6.0112   6.0112   6.0112   6.0112
     8.7698   8.7698   8.7698   8.7698   8.9289   8.9289   8.9289   8.9289
     9.1828   9.1828   9.1828   9.1828  10.0262  10.0262  10.0262  10.0262
    11.4338  11.4338  11.4338  11.4338  12.0114  12.0114  12.0114  12.0114
    13.9451  13.9451  13.9451  13.9451  16.3739  16.3739  16.3739  16.3739
    17.6872  17.6872  17.6872  17.6872  22.5736  22.5736

     occupation numbers 
     1.0000   1.0000   1.0000   1.0000   1.0000   1.0000   1.0000   1.0000
     1.0000   1.0000   1.0000   1.0000   1.0000   1.0000   1.0000   1.0000
     1.0000   1.0000   1.0000   1.0000   1.0000   1.0000   1.0000   1.0000
     1.0000   1.0000   1.0000   1.0000   1.0000   1.0000   1.0000   1.0000
     1.0000   1.0000   1.0000   1.0000   1.0000   1.0000   1.0000   1.0000
     1.0000   1.0000   1.0000   1.0000   1.0000   1.0000   1.0000   1.0000
     1.0000   1.0000   1.0000   1.0000   1.0000   1.0000   1.0000   1.0000
    -0.0347  -0.0347  -0.0347  -0.0347  -0.0000  -0.0000  -0.0000  -0.0000
    -0.0000  -0.0000  -0.0000  -0.0000  -0.0000  -0.0000

          k =-0.5000-0.5000 0.2850 (  5392 PWs)   bands (ev):

   -79.3811 -79.3811 -79.3811 -79.3811 -46.2236 -46.2236 -46.2236 -46.2236
   -32.7741 -32.7741 -32.7741 -32.7741 -32.6237 -32.6237 -32.6237 -32.6237
    -6.1460  -6.1460  -6.1460  -6.1460  -5.2048  -5.2048  -5.2048  -5.2048
     4.8029   4.8029   4.8029   4.8029   6.0357   6.0357   6.0357   6.0357
     8.2567   8.2567   8.2567   8.2567   8.9599   8.9599   8.9599   8.9599
     9.1578   9.1578   9.1578   9.1578   9.7419   9.7419   9.7419   9.7419
    11.7996  11.7996  11.7996  11.7996  12.4787  12.4787  12.4787  12.4787
    13.6558  13.6558  13.6558  13.6558  16.6140  16.6140  16.6140  16.6140
    17.2105  17.2105  17.2105  17.2105  22.8443  22.8443

     occupation numbers 
     1.0000   1.0000   1.0000   1.0000   1.0000   1.0000   1.0000   1.0000
     1.0000   1.0000   1.0000   1.0000   1.0000   1.0000   1.0000   1.0000
     1.0000   1.0000   1.0000   1.0000   1.0000   1.0000   1.0000   1.0000
     1.0000   1.0000   1.0000   1.0000   1.0000   1.0000   1.0000   1.0000
     1.0000   1.0000   1.0000   1.0000   1.0000   1.0000   1.0000   1.0000
     1.0000   1.0000   1.0000   1.0000   1.0000   1.0000   1.0000   1.0000
     1.0000   1.0000   1.0000   1.0000   1.0000   1.0000   1.0000   1.0000
     1.0001   1.0001   1.0001   1.0001  -0.0000  -0.0000  -0.0000  -0.0000
    -0.0000  -0.0000  -0.0000  -0.0000  -0.0000  -0.0000

          k =-0.5000-0.5000 0.4274 (  5352 PWs)   bands (ev):

   -79.3803 -79.3803 -79.3803 -79.3803 -46.2271 -46.2271 -46.2271 -46.2271
   -32.7911 -32.7911 -32.7911 -32.7911 -32.6285 -32.6285 -32.6285 -32.6285
    -5.8985  -5.8985  -5.8985  -5.8985  -5.3475  -5.3475  -5.3475  -5.3475
     5.2100   5.2100   5.2100   5.2100   6.1084   6.1084   6.1084   6.1084
     7.4450   7.4450   7.4450   7.4450   8.7207   8.7207   8.7207   8.7207
     9.2965   9.2965   9.2965   9.2965  10.1174  10.1174  10.1174  10.1174
    11.9634  11.9634  11.9634  11.9634  12.8402  12.8402  12.8402  12.8402
    13.3313  13.3313  13.3313  13.3313  16.4635  16.4635  16.4635  16.4635
    17.0516  17.0516  17.0516  17.0516  23.0247  23.0247

     occupation numbers 
     1.0000   1.0000   1.0000   1.0000   1.0000   1.0000   1.0000   1.0000
     1.0000   1.0000   1.0000   1.0000   1.0000   1.0000   1.0000   1.0000
     1.0000   1.0000   1.0000   1.0000   1.0000   1.0000   1.0000   1.0000
     1.0000   1.0000   1.0000   1.0000   1.0000   1.0000   1.0000   1.0000
     1.0000   1.0000   1.0000   1.0000   1.0000   1.0000   1.0000   1.0000
     1.0000   1.0000   1.0000   1.0000   1.0000   1.0000   1.0000   1.0000
     1.0000   1.0000   1.0000   1.0000   1.0000   1.0000   1.0000   1.0000
     1.0000   1.0000   1.0000   1.0000  -0.0000  -0.0000  -0.0000  -0.0000
    -0.0000  -0.0000  -0.0000  -0.0000  -0.0000  -0.0000

          k =-0.5000-0.5000 0.5699 (  5332 PWs)   bands (ev):

   -79.3798 -79.3798 -79.3798 -79.3798 -46.2299 -46.2299 -46.2299 -46.2299
   -32.8065 -32.8065 -32.8065 -32.8065 -32.6306 -32.6306 -32.6306 -32.6306
    -5.6970  -5.6970  -5.6970  -5.6970  -5.4531  -5.4531  -5.4531  -5.4531
     5.5824   5.5824   5.5824   5.5824   6.2003   6.2003   6.2003   6.2003
     6.8697   6.8697   6.8697   6.8697   8.3908   8.3908   8.3908   8.3908
     9.5444   9.5444   9.5444   9.5444  10.5145  10.5145  10.5145  10.5145
    11.9669  11.9669  11.9669  11.9669  12.7455  12.7455  12.7455  12.7455
    13.3647  13.3647  13.3647  13.3647  16.1758  16.1758  16.1758  16.1758
    17.0461  17.0461  17.0461  17.0461  23.0918  23.0918

     occupation numbers 
     1.0000   1.0000   1.0000   1.0000   1.0000   1.0000   1.0000   1.0000
     1.0000   1.0000   1.0000   1.0000   1.0000   1.0000   1.0000   1.0000
     1.0000   1.0000   1.0000   1.0000   1.0000   1.0000   1.0000   1.0000
     1.0000   1.0000   1.0000   1.0000   1.0000   1.0000   1.0000   1.0000
     1.0000   1.0000   1.0000   1.0000   1.0000   1.0000   1.0000   1.0000
     1.0000   1.0000   1.0000   1.0000   1.0000   1.0000   1.0000   1.0000
     1.0000   1.0000   1.0000   1.0000   1.0000   1.0000   1.0000   1.0000
     1.0000   1.0000   1.0000   1.0000  -0.0000  -0.0000  -0.0000  -0.0000
    -0.0000  -0.0000  -0.0000  -0.0000  -0.0000  -0.0000

          k =-0.5000-0.5000-0.7124 (  5384 PWs)   bands (ev):

   -79.3795 -79.3795 -79.3795 -79.3795 -46.2309 -46.2309 -46.2309 -46.2309
   -32.8127 -32.8127 -32.8127 -32.8127 -32.6310 -32.6310 -32.6310 -32.6310
    -5.6289  -5.6289  -5.6289  -5.6289  -5.4818  -5.4818  -5.4818  -5.4818
     5.7397   5.7397   5.7397   5.7397   6.2395   6.2395   6.2395   6.2395
     6.6653   6.6653   6.6653   6.6653   8.2633   8.2633   8.2633   8.2633
     9.6577   9.6577   9.6577   9.6577  10.6671  10.6671  10.6671  10.6671
    11.9399  11.9399  11.9399  11.9399  12.6160  12.6160  12.6160  12.6160
    13.4498  13.4498  13.4498  13.4498  16.0749  16.0749  16.0749  16.0749
    17.0249  17.0249  17.0249  17.0249  23.0643  23.0643

     occupation numbers 
     1.0000   1.0000   1.0000   1.0000   1.0000   1.0000   1.0000   1.0000
     1.0000   1.0000   1.0000   1.0000   1.0000   1.0000   1.0000   1.0000
     1.0000   1.0000   1.0000   1.0000   1.0000   1.0000   1.0000   1.0000
     1.0000   1.0000   1.0000   1.0000   1.0000   1.0000   1.0000   1.0000
     1.0000   1.0000   1.0000   1.0000   1.0000   1.0000   1.0000   1.0000
     1.0000   1.0000   1.0000   1.0000   1.0000   1.0000   1.0000   1.0000
     1.0000   1.0000   1.0000   1.0000   1.0000   1.0000   1.0000   1.0000
     1.0000   1.0000   1.0000   1.0000  -0.0000  -0.0000  -0.0000  -0.0000
    -0.0000  -0.0000  -0.0000  -0.0000  -0.0000  -0.0000

     the Fermi energy is    13.8663 ev

!    total energy              =    -553.08051671 Ry
     estimated scf accuracy    <          2.1E-11 Ry
     smearing contrib. (-TS)   =      -0.00001684 Ry
     internal energy E=F+TS    =    -553.08049987 Ry

     The total energy is F=E-TS. E is the sum of the following terms:
     one-electron contribution =    -190.91066377 Ry
     hartree contribution      =     122.73031060 Ry
     xc contribution           =     -69.91413619 Ry
     ewald contribution        =    -414.98601052 Ry

     convergence has been achieved in  10 iterations

     Forces acting on atoms (cartesian axes, Ry/au):

     atom    1 type  2   force =     0.00000000    0.00000000    0.00000000
     atom    2 type  2   force =     0.00000000    0.00000000    0.00000000
     atom    3 type  1   force =     0.00061641   -0.00061641   -0.00000000
     atom    4 type  1   force =    -0.00061641   -0.00061641    0.00000000
     atom    5 type  1   force =     0.00061641    0.00061641    0.00000000
     atom    6 type  1   force =    -0.00061641    0.00061641   -0.00000000
     The non-local contrib.  to forces
     atom    1 type  2   force =     0.00000000    0.00000000    0.00000000
     atom    2 type  2   force =     0.00000000    0.00000000    0.00000000
     atom    3 type  1   force =    -0.05402775    0.05402775    0.00000000
     atom    4 type  1   force =     0.05402775    0.05402775    0.00000000
     atom    5 type  1   force =    -0.05402775   -0.05402775    0.00000000
     atom    6 type  1   force =     0.05402775   -0.05402775    0.00000000
     The ionic contribution  to forces
     atom    1 type  2   force =    -0.00000000   -0.00000000    0.00000000
     atom    2 type  2   force =     0.00000000    0.00000000   -0.00000000
     atom    3 type  1   force =     1.42937233   -1.42937233    0.00000000
     atom    4 type  1   force =    -1.42937233   -1.42937233   -0.00000000
     atom    5 type  1   force =     1.42937233    1.42937233    0.00000000
     atom    6 type  1   force =    -1.42937233    1.42937233    0.00000000
     The local contribution  to forces
     atom    1 type  2   force =    -0.00000000    0.00000000   -0.00000000
     atom    2 type  2   force =     0.00000000    0.00000000    0.00000000
     atom    3 type  1   force =    -1.37472760    1.37472760    0.00000000
     atom    4 type  1   force =     1.37472760    1.37472760   -0.00000000
     atom    5 type  1   force =    -1.37472760   -1.37472760   -0.00000000
     atom    6 type  1   force =     1.37472760   -1.37472760    0.00000000
     The core correction contribution to forces
     atom    1 type  2   force =     0.00000000    0.00000000    0.00000000
     atom    2 type  2   force =     0.00000000    0.00000000    0.00000000
     atom    3 type  1   force =     0.00000000    0.00000000    0.00000000
     atom    4 type  1   force =     0.00000000    0.00000000    0.00000000
     atom    5 type  1   force =     0.00000000    0.00000000    0.00000000
     atom    6 type  1   force =     0.00000000    0.00000000    0.00000000
     The Hubbard contrib.    to forces
     atom    1 type  2   force =     0.00000000    0.00000000    0.00000000
     atom    2 type  2   force =     0.00000000    0.00000000    0.00000000
     atom    3 type  1   force =     0.00000000    0.00000000    0.00000000
     atom    4 type  1   force =     0.00000000    0.00000000    0.00000000
     atom    5 type  1   force =     0.00000000    0.00000000    0.00000000
     atom    6 type  1   force =     0.00000000    0.00000000    0.00000000
     The SCF correction term to forces
     atom    1 type  2   force =     0.00000000    0.00000000    0.00000000
     atom    2 type  2   force =    -0.00000000    0.00000000   -0.00000000
     atom    3 type  1   force =    -0.00000058    0.00000058   -0.00000000
     atom    4 type  1   force =     0.00000058    0.00000058    0.00000000
     atom    5 type  1   force =    -0.00000058   -0.00000058    0.00000000
     atom    6 type  1   force =     0.00000058   -0.00000058    0.00000000

     Total force =     0.001743     Total SCF correction =     0.000002


     Computing stress (Cartesian axis) and pressure

          total   stress  (Ry/bohr**3)                   (kbar)     P=      -20.78
  -0.00012300   0.00000000   0.00000000          -18.09        0.00        0.00
   0.00000000  -0.00012300   0.00000000            0.00      -18.09        0.00
   0.00000000   0.00000000  -0.00017779            0.00        0.00      -26.15

     kinetic stress (kbar)  48454.79      0.00      0.00
                                0.00  48454.79      0.00
                                0.00      0.00  47522.59

     local   stress (kbar) -12688.18      0.00     -0.00
                                0.00 -12688.18     -0.00
                               -0.00     -0.00 -44396.59

     nonloc. stress (kbar)  14528.59      0.00      0.00
                                0.00  14528.59      0.00
                                0.00      0.00  14740.89

     hartree stress (kbar)   9611.04      0.00      0.00
                                0.00   9611.04      0.00
                                0.00      0.00  21377.84

     exc-cor stress (kbar)  -7288.12     -0.00      0.00
                               -0.00  -7288.12      0.00
                                0.00      0.00  -7263.44

     corecor stress (kbar)      0.00      0.00      0.00
                                0.00      0.00      0.00
                                0.00      0.00      0.00

     ewald   stress (kbar) -52636.21     -0.00     -0.00
                               -0.00 -52636.21     -0.00
                               -0.00     -0.00 -32007.45

     hubbard stress (kbar)      0.00      0.00      0.00
                                0.00      0.00      0.00
                                0.00      0.00      0.00

     DFT-D   stress (kbar)      0.00      0.00      0.00
                                0.00      0.00      0.00
                                0.00      0.00      0.00

     XDM     stress (kbar)      0.00      0.00      0.00
                                0.00      0.00      0.00
                                0.00      0.00      0.00

     dft-nl  stress (kbar)      0.00      0.00      0.00
                                0.00      0.00      0.00
                                0.00      0.00      0.00

     TS-vdW  stress (kbar)      0.00      0.00      0.00
                                0.00      0.00      0.00
                                0.00      0.00      0.00


                                0.00      0.00      0.00
                                0.00      0.00      0.00


                                0.00      0.00      0.00


     Writing all to output data dir tmp/espresso.save/
 
     init_run     :      9.02s CPU      4.66s WALL (       1 calls)
     electrons    :    307.17s CPU    157.29s WALL (       1 calls)
     forces       :     15.13s CPU      7.75s WALL (       1 calls)
     stress       :     22.90s CPU     11.56s WALL (       1 calls)

     Called by init_run:
     wfcinit      :      8.95s CPU      4.60s WALL (       1 calls)
     wfcinit:atom :      0.03s CPU      0.02s WALL (      90 calls)
     wfcinit:wfcr :      8.70s CPU      4.47s WALL (      90 calls)
     potinit      :      0.03s CPU      0.02s WALL (       1 calls)
     hinit0       :      0.03s CPU      0.03s WALL (       1 calls)

     Called by electrons:
     c_bands      :    281.63s CPU    144.14s WALL (      10 calls)
     sum_band     :     25.37s CPU     13.03s WALL (      10 calls)
     v_of_rho     :      0.05s CPU      0.03s WALL (      11 calls)
     v_h          :      0.00s CPU      0.00s WALL (      11 calls)
     v_xc         :      0.04s CPU      0.02s WALL (      11 calls)
     mix_rho      :      0.05s CPU      0.02s WALL (      10 calls)

     Called by c_bands:
     init_us_2    :      0.81s CPU      0.43s WALL (    2070 calls)
     init_us_2:cp :      0.79s CPU      0.42s WALL (    2070 calls)
     cegterg      :    259.60s CPU    132.90s WALL (     900 calls)

     Called by sum_band:
     sum_band:wei :      0.16s CPU      0.08s WALL (      10 calls)
     sum_band:loo :     25.19s CPU     12.94s WALL (      10 calls)
     sum_band:buf :      0.14s CPU      0.07s WALL (     900 calls)
     sum_band:ini :      0.26s CPU      0.14s WALL (     900 calls)

     Called by *egterg:
     cdiaghg      :     38.70s CPU     19.68s WALL (    3123 calls)
     cegterg:over :     15.83s CPU      8.07s WALL (    2223 calls)
     cegterg:upda :     12.78s CPU      6.49s WALL (    2223 calls)
     cegterg:last :     22.35s CPU     11.36s WALL (    1800 calls)
     cdiaghg:chol :      1.81s CPU      0.92s WALL (    3123 calls)
     cdiaghg:inve :      0.28s CPU      0.14s WALL (    3123 calls)
     cdiaghg:para :      4.07s CPU      2.07s WALL (    6246 calls)
     h_psi        :    172.05s CPU     88.42s WALL (    3213 calls)
     g_psi        :      0.26s CPU      0.13s WALL (    2223 calls)

     Called by h_psi:
     h_psi:calbec :     20.70s CPU     10.84s WALL (    3213 calls)
     vloc_psi     :    120.69s CPU     61.99s WALL (    3213 calls)
     add_vuspsi   :     30.26s CPU     15.39s WALL (    3213 calls)

     General routines
     calbec       :     26.27s CPU     13.73s WALL (    3663 calls)
     fft          :      0.05s CPU      0.03s WALL (     150 calls)
     ffts         :      0.01s CPU      0.01s WALL (      40 calls)
     fftw         :    136.61s CPU     70.18s WALL (  775208 calls)
 
     Parallel routines
 
     PWSCF        :   6m 4.39s CPU   3m 9.10s WALL

 
   This run was terminated on:  11:43:36  10Apr2022            

=------------------------------------------------------------------------------=
   JOB DONE.
=------------------------------------------------------------------------------=
