
     Program PWSCF v.7.0 starts on 10Apr2022 at 10:57:56 

     This program is part of the open-source Quantum ESPRESSO suite
     for quantum simulation of materials; please cite
         "P. Giannozzi et al., J. Phys.:Condens. Matter 21 395502 (2009);
         "P. Giannozzi et al., J. Phys.:Condens. Matter 29 465901 (2017);
         "P. Giannozzi et al., J. Chem. Phys. 152 154105 (2020);
          URL http://www.quantum-espresso.org", 
     in publications or presentations arising from this work. More details at
     http://www.quantum-espresso.org/quote

     Parallel version (MPI & OpenMP), running on      64 processor cores
     Number of MPI processes:                32
     Threads/MPI process:                     2

     MPI processes distributed on     1 nodes
     R & G space division:  proc/nbgrp/npool/nimage =      32
     230642 MiB available memory on the printing compute node when the environment starts
 
     Reading input from kpoints_778.pwi
Warning: card &CELL ignored
Warning: card / ignored

     Current dimensions of program PWSCF are:
     Max number of different atomic species (ntypx) = 10
     Max number of k-points (npk) =  40000
     Max angular momentum in pseudopotentials (lmaxx) =  4

     Subspace diagonalization in iterative solution of the eigenvalue problem:
     one sub-group per band group will be used
     scalapack distributed-memory algorithm (size of sub-group:  5*  5 procs)

 
     Parallelization info
     --------------------
     sticks:   dense  smooth     PW     G-vecs:    dense   smooth      PW
     Min          58      58     17                 1342     1342     209
     Max          59      59     18                 1345     1345     212
     Sum        1885    1885    553                42999    42999    6723
 
     Using Slab Decomposition
 

     Title: 
     IrO2 Unit Cell                                                             


     bravais-lattice index     =            6
     lattice parameter (alat)  =       8.5888  a.u.
     unit-cell volume          =     444.6868 (a.u.)^3
     number of atoms/cell      =            6
     number of atomic types    =            2
     number of electrons       =        58.00
     number of Kohn-Sham states=           70
     kinetic-energy cutoff     =      80.0000  Ry
     charge density cutoff     =     320.0000  Ry
     scf convergence threshold =      1.0E-09
     mixing beta               =       0.7000
     number of iterations used =            8  plain     mixing
     Exchange-correlation= PBE
                           (   1   4   3   4   0   0   0)
     Non magnetic calculation with spin-orbit


     celldm(1)=   8.588800  celldm(2)=   0.000000  celldm(3)=   0.701870
     celldm(4)=   0.000000  celldm(5)=   0.000000  celldm(6)=   0.000000

     crystal axes: (cart. coord. in units of alat)
               a(1) = (   1.000000   0.000000   0.000000 )  
               a(2) = (   0.000000   1.000000   0.000000 )  
               a(3) = (   0.000000   0.000000   0.701870 )  

     reciprocal axes: (cart. coord. in units 2 pi/alat)
               b(1) = (  1.000000  0.000000  0.000000 )  
               b(2) = (  0.000000  1.000000  0.000000 )  
               b(3) = (  0.000000  0.000000  1.424765 )  


     PseudoPot. # 1 for O  read from file:
     ../../XX_PSEUDO/O_ONCV_PBE_fr.upf
     MD5 check sum: 59c925217d3b58c6d762355590b68b09
     Pseudo is Norm-conserving, Zval =  6.0
     Generated using ONCVPSP code by D. R. Hamann
     Using radial grid of  936 points,  6 beta functions with: 
                l(1) =   0
                l(2) =   0
                l(3) =   1
                l(4) =   1
                l(5) =   1
                l(6) =   1

     PseudoPot. # 2 for Ir read from file:
     ../../XX_PSEUDO/Ir_ONCV_PBE_fr.upf
     MD5 check sum: 924e909c4146afa09f62ee3401806954
     Pseudo is Norm-conserving, Zval = 17.0
     Generated using ONCVPSP code by D. R. Hamann
     Using radial grid of 1310 points, 14 beta functions with: 
                l(1) =   0
                l(2) =   0
                l(3) =   1
                l(4) =   1
                l(5) =   1
                l(6) =   1
                l(7) =   2
                l(8) =   2
                l(9) =   2
               l(10) =   2
               l(11) =   3
               l(12) =   3
               l(13) =   3
               l(14) =   3

     atomic species   valence    mass     pseudopotential
        O              6.00    15.99900     O ( 1.00)
        Ir            17.00   192.21700     Ir( 1.00)

     16 Sym. Ops., with inversion, found ( 8 have fractional translation)


                                    s                        frac. trans.

      isym =  1     identity                                     

 cryst.   s( 1) = (     1          0          0      )
                  (     0          1          0      )
                  (     0          0          1      )

 cart.    s( 1) = (  1.0000000  0.0000000  0.0000000 )
                  (  0.0000000  1.0000000  0.0000000 )
                  (  0.0000000  0.0000000  1.0000000 )


      isym =  2     180 deg rotation - cart. axis [0,0,1]        

 cryst.   s( 2) = (    -1          0          0      )
                  (     0         -1          0      )
                  (     0          0          1      )

 cart.    s( 2) = ( -1.0000000  0.0000000  0.0000000 )
                  (  0.0000000 -1.0000000  0.0000000 )
                  (  0.0000000  0.0000000  1.0000000 )


      isym =  3     180 deg rotation - cart. axis [0,1,0]        

 cryst.   s( 3) = (    -1          0          0      )    f =(  0.5000000 )
                  (     0          1          0      )       ( -0.5000000 )
                  (     0          0         -1      )       (  0.5000000 )

 cart.    s( 3) = ( -1.0000000  0.0000000  0.0000000 )    f =(  0.5000000 )
                  (  0.0000000  1.0000000  0.0000000 )       ( -0.5000000 )
                  (  0.0000000  0.0000000 -1.0000000 )       (  0.3509351 )


      isym =  4     180 deg rotation - cart. axis [1,0,0]        

 cryst.   s( 4) = (     1          0          0      )    f =( -0.5000000 )
                  (     0         -1          0      )       (  0.5000000 )
                  (     0          0         -1      )       (  0.5000000 )

 cart.    s( 4) = (  1.0000000  0.0000000  0.0000000 )    f =( -0.5000000 )
                  (  0.0000000 -1.0000000  0.0000000 )       (  0.5000000 )
                  (  0.0000000  0.0000000 -1.0000000 )       (  0.3509351 )


      isym =  5     180 deg rotation - cart. axis [1,1,0]        

 cryst.   s( 5) = (     0          1          0      )
                  (     1          0          0      )
                  (     0          0         -1      )

 cart.    s( 5) = (  0.0000000  1.0000000  0.0000000 )
                  (  1.0000000  0.0000000  0.0000000 )
                  (  0.0000000  0.0000000 -1.0000000 )


      isym =  6     180 deg rotation - cart. axis [1,-1,0]       

 cryst.   s( 6) = (     0         -1          0      )
                  (    -1          0          0      )
                  (     0          0         -1      )

 cart.    s( 6) = (  0.0000000 -1.0000000  0.0000000 )
                  ( -1.0000000  0.0000000  0.0000000 )
                  (  0.0000000  0.0000000 -1.0000000 )


      isym =  7      90 deg rotation - cart. axis [0,0,-1]       

 cryst.   s( 7) = (     0         -1          0      )    f =( -0.5000000 )
                  (     1          0          0      )       (  0.5000000 )
                  (     0          0          1      )       ( -0.5000000 )

 cart.    s( 7) = (  0.0000000  1.0000000  0.0000000 )    f =( -0.5000000 )
                  ( -1.0000000  0.0000000  0.0000000 )       (  0.5000000 )
                  (  0.0000000  0.0000000  1.0000000 )       ( -0.3509351 )


      isym =  8      90 deg rotation - cart. axis [0,0,1]        

 cryst.   s( 8) = (     0          1          0      )    f =(  0.5000000 )
                  (    -1          0          0      )       ( -0.5000000 )
                  (     0          0          1      )       ( -0.5000000 )

 cart.    s( 8) = (  0.0000000 -1.0000000  0.0000000 )    f =(  0.5000000 )
                  (  1.0000000  0.0000000  0.0000000 )       ( -0.5000000 )
                  (  0.0000000  0.0000000  1.0000000 )       ( -0.3509351 )


      isym =  9     inversion                                    

 cryst.   s( 9) = (    -1          0          0      )
                  (     0         -1          0      )
                  (     0          0         -1      )

 cart.    s( 9) = ( -1.0000000  0.0000000  0.0000000 )
                  (  0.0000000 -1.0000000  0.0000000 )
                  (  0.0000000  0.0000000 -1.0000000 )


      isym = 10     inv. 180 deg rotation - cart. axis [0,0,1]   

 cryst.   s(10) = (     1          0          0      )
                  (     0          1          0      )
                  (     0          0         -1      )

 cart.    s(10) = (  1.0000000  0.0000000  0.0000000 )
                  (  0.0000000  1.0000000  0.0000000 )
                  (  0.0000000  0.0000000 -1.0000000 )


      isym = 11     inv. 180 deg rotation - cart. axis [0,1,0]   

 cryst.   s(11) = (     1          0          0      )    f =( -0.5000000 )
                  (     0         -1          0      )       (  0.5000000 )
                  (     0          0          1      )       ( -0.5000000 )

 cart.    s(11) = (  1.0000000  0.0000000  0.0000000 )    f =( -0.5000000 )
                  (  0.0000000 -1.0000000  0.0000000 )       (  0.5000000 )
                  (  0.0000000  0.0000000  1.0000000 )       ( -0.3509351 )


      isym = 12     inv. 180 deg rotation - cart. axis [1,0,0]   

 cryst.   s(12) = (    -1          0          0      )    f =(  0.5000000 )
                  (     0          1          0      )       ( -0.5000000 )
                  (     0          0          1      )       ( -0.5000000 )

 cart.    s(12) = ( -1.0000000  0.0000000  0.0000000 )    f =(  0.5000000 )
                  (  0.0000000  1.0000000  0.0000000 )       ( -0.5000000 )
                  (  0.0000000  0.0000000  1.0000000 )       ( -0.3509351 )


      isym = 13     inv. 180 deg rotation - cart. axis [1,1,0]   

 cryst.   s(13) = (     0         -1          0      )
                  (    -1          0          0      )
                  (     0          0          1      )

 cart.    s(13) = (  0.0000000 -1.0000000  0.0000000 )
                  ( -1.0000000  0.0000000  0.0000000 )
                  (  0.0000000  0.0000000  1.0000000 )


      isym = 14     inv. 180 deg rotation - cart. axis [1,-1,0]  

 cryst.   s(14) = (     0          1          0      )
                  (     1          0          0      )
                  (     0          0          1      )

 cart.    s(14) = (  0.0000000  1.0000000  0.0000000 )
                  (  1.0000000  0.0000000  0.0000000 )
                  (  0.0000000  0.0000000  1.0000000 )


      isym = 15     inv.  90 deg rotation - cart. axis [0,0,-1]  

 cryst.   s(15) = (     0          1          0      )    f =(  0.5000000 )
                  (    -1          0          0      )       ( -0.5000000 )
                  (     0          0         -1      )       (  0.5000000 )

 cart.    s(15) = (  0.0000000 -1.0000000  0.0000000 )    f =(  0.5000000 )
                  (  1.0000000  0.0000000  0.0000000 )       ( -0.5000000 )
                  (  0.0000000  0.0000000 -1.0000000 )       (  0.3509351 )


      isym = 16     inv.  90 deg rotation - cart. axis [0,0,1]   

 cryst.   s(16) = (     0         -1          0      )    f =( -0.5000000 )
                  (     1          0          0      )       (  0.5000000 )
                  (     0          0         -1      )       (  0.5000000 )

 cart.    s(16) = (  0.0000000  1.0000000  0.0000000 )    f =( -0.5000000 )
                  ( -1.0000000  0.0000000  0.0000000 )       (  0.5000000 )
                  (  0.0000000  0.0000000 -1.0000000 )       (  0.3509351 )


     double point group D_4h(4/mmm)
     there are 14 classes and  4 irreducible representations
     the character table:

       E     -E    2C4   -2C4   C2    2C2' 2C2'' i     -i    2S4   -2S4   s_h 
                               -C2   -2C2' -2C2'                         -s_h 
G_6+   2.00 -2.00  1.41 -1.41  0.00  0.00  0.00  2.00 -2.00  1.41 -1.41  0.00
G_7+   2.00 -2.00 -1.41  1.41  0.00  0.00  0.00  2.00 -2.00 -1.41  1.41  0.00
G_6-   2.00 -2.00  1.41 -1.41  0.00  0.00  0.00 -2.00  2.00 -1.41  1.41  0.00
G_7-   2.00 -2.00 -1.41  1.41  0.00  0.00  0.00 -2.00  2.00  1.41 -1.41  0.00

        2s_v  2s_d
       -2s_v -2s_d
G_6+   0.00  0.00
G_7+   0.00  0.00
G_6-   0.00  0.00
G_7-   0.00  0.00

     the symmetry operations in each class and the name of the first element:

     E             1
          identity                                               
     -E           -1
          identity E                                             
     2C4           7    8
           90 deg rotation - cart. axis [0,0,-1]                 
     -2C4         -7   -8
           90 deg rotation - cart. axis [0,0,-1] E               
      C2  -C2      2   -2
          180 deg rotation - cart. axis [0,0,1]                  
      2C2'-2C2'    3   -3    4   -4
          180 deg rotation - cart. axis [0,1,0]                  
     2C2''-2C2'    5   -5   -6    6
          180 deg rotation - cart. axis [1,1,0]                  
     i             9
          inversion                                              
     -i           -9
          inversion E                                            
     2S4          15   16
          inv.  90 deg rotation - cart. axis [0,0,-1]            
     -2S4        -15  -16
          inv.  90 deg rotation - cart. axis [0,0,-1] E          
      s_h -s_h    10  -10
          inv. 180 deg rotation - cart. axis [0,0,1]             
      2s_v-2s_v   11  -11   12  -12
          inv. 180 deg rotation - cart. axis [0,1,0]             
      2s_d-2s_d   13  -13  -14   14
          inv. 180 deg rotation - cart. axis [1,1,0]             

   Cartesian axes

     site n.     atom                  positions (alat units)
         1           Ir  tau(   1) = (   0.0000000   0.0000000   0.0000000  )
         2           Ir  tau(   2) = (   0.5000000   0.5000000   0.3509351  )
         3           O   tau(   3) = (   0.1916000   0.8084000   0.3509351  )
         4           O   tau(   4) = (   0.3084000   0.3084000   0.0000000  )
         5           O   tau(   5) = (   0.6916000   0.6916000   0.0000000  )
         6           O   tau(   6) = (   0.8084000   0.1916000   0.3509351  )

   Crystallographic axes

     site n.     atom                  positions (cryst. coord.)
         1           Ir  tau(   1) = (  0.0000000  0.0000000  0.0000000  )
         2           Ir  tau(   2) = (  0.5000000  0.5000000  0.5000000  )
         3           O   tau(   3) = (  0.1916000  0.8084000  0.5000000  )
         4           O   tau(   4) = (  0.3084000  0.3084000  0.0000000  )
         5           O   tau(   5) = (  0.6916000  0.6916000  0.0000000  )
         6           O   tau(   6) = (  0.8084000  0.1916000  0.5000000  )

     number of k points=    50  Methfessel-Paxton smearing, width (Ry)=  0.0050
                       cart. coord. in units 2pi/alat
        k(    1) = (   0.0000000   0.0000000   0.0000000), wk =   0.0025510
        k(    2) = (   0.0000000   0.0000000   0.1780956), wk =   0.0051020
        k(    3) = (   0.0000000   0.0000000   0.3561912), wk =   0.0051020
        k(    4) = (   0.0000000   0.0000000   0.5342868), wk =   0.0051020
        k(    5) = (   0.0000000   0.0000000  -0.7123824), wk =   0.0025510
        k(    6) = (   0.0000000   0.1428571   0.0000000), wk =   0.0102041
        k(    7) = (   0.0000000   0.1428571   0.1780956), wk =   0.0204082
        k(    8) = (   0.0000000   0.1428571   0.3561912), wk =   0.0204082
        k(    9) = (   0.0000000   0.1428571   0.5342868), wk =   0.0204082
        k(   10) = (   0.0000000   0.1428571  -0.7123824), wk =   0.0102041
        k(   11) = (   0.0000000   0.2857143   0.0000000), wk =   0.0102041
        k(   12) = (   0.0000000   0.2857143   0.1780956), wk =   0.0204082
        k(   13) = (   0.0000000   0.2857143   0.3561912), wk =   0.0204082
        k(   14) = (   0.0000000   0.2857143   0.5342868), wk =   0.0204082
        k(   15) = (   0.0000000   0.2857143  -0.7123824), wk =   0.0102041
        k(   16) = (   0.0000000   0.4285714   0.0000000), wk =   0.0102041
        k(   17) = (   0.0000000   0.4285714   0.1780956), wk =   0.0204082
        k(   18) = (   0.0000000   0.4285714   0.3561912), wk =   0.0204082
        k(   19) = (   0.0000000   0.4285714   0.5342868), wk =   0.0204082
        k(   20) = (   0.0000000   0.4285714  -0.7123824), wk =   0.0102041
        k(   21) = (   0.1428571   0.1428571   0.0000000), wk =   0.0102041
        k(   22) = (   0.1428571   0.1428571   0.1780956), wk =   0.0204082
        k(   23) = (   0.1428571   0.1428571   0.3561912), wk =   0.0204082
        k(   24) = (   0.1428571   0.1428571   0.5342868), wk =   0.0204082
        k(   25) = (   0.1428571   0.1428571  -0.7123824), wk =   0.0102041
        k(   26) = (   0.1428571   0.2857143   0.0000000), wk =   0.0204082
        k(   27) = (   0.1428571   0.2857143   0.1780956), wk =   0.0408163
        k(   28) = (   0.1428571   0.2857143   0.3561912), wk =   0.0408163
        k(   29) = (   0.1428571   0.2857143   0.5342868), wk =   0.0408163
        k(   30) = (   0.1428571   0.2857143  -0.7123824), wk =   0.0204082
        k(   31) = (   0.1428571   0.4285714   0.0000000), wk =   0.0204082
        k(   32) = (   0.1428571   0.4285714   0.1780956), wk =   0.0408163
        k(   33) = (   0.1428571   0.4285714   0.3561912), wk =   0.0408163
        k(   34) = (   0.1428571   0.4285714   0.5342868), wk =   0.0408163
        k(   35) = (   0.1428571   0.4285714  -0.7123824), wk =   0.0204082
        k(   36) = (   0.2857143   0.2857143   0.0000000), wk =   0.0102041
        k(   37) = (   0.2857143   0.2857143   0.1780956), wk =   0.0204082
        k(   38) = (   0.2857143   0.2857143   0.3561912), wk =   0.0204082
        k(   39) = (   0.2857143   0.2857143   0.5342868), wk =   0.0204082
        k(   40) = (   0.2857143   0.2857143  -0.7123824), wk =   0.0102041
        k(   41) = (   0.2857143   0.4285714   0.0000000), wk =   0.0204082
        k(   42) = (   0.2857143   0.4285714   0.1780956), wk =   0.0408163
        k(   43) = (   0.2857143   0.4285714   0.3561912), wk =   0.0408163
        k(   44) = (   0.2857143   0.4285714   0.5342868), wk =   0.0408163
        k(   45) = (   0.2857143   0.4285714  -0.7123824), wk =   0.0204082
        k(   46) = (   0.4285714   0.4285714   0.0000000), wk =   0.0102041
        k(   47) = (   0.4285714   0.4285714   0.1780956), wk =   0.0204082
        k(   48) = (   0.4285714   0.4285714   0.3561912), wk =   0.0204082
        k(   49) = (   0.4285714   0.4285714   0.5342868), wk =   0.0204082
        k(   50) = (   0.4285714   0.4285714  -0.7123824), wk =   0.0102041

                       cryst. coord.
        k(    1) = (   0.0000000   0.0000000   0.0000000), wk =   0.0025510
        k(    2) = (   0.0000000   0.0000000   0.1250000), wk =   0.0051020
        k(    3) = (   0.0000000   0.0000000   0.2500000), wk =   0.0051020
        k(    4) = (   0.0000000   0.0000000   0.3750000), wk =   0.0051020
        k(    5) = (   0.0000000   0.0000000  -0.5000000), wk =   0.0025510
        k(    6) = (   0.0000000   0.1428571   0.0000000), wk =   0.0102041
        k(    7) = (   0.0000000   0.1428571   0.1250000), wk =   0.0204082
        k(    8) = (   0.0000000   0.1428571   0.2500000), wk =   0.0204082
        k(    9) = (   0.0000000   0.1428571   0.3750000), wk =   0.0204082
        k(   10) = (   0.0000000   0.1428571  -0.5000000), wk =   0.0102041
        k(   11) = (   0.0000000   0.2857143   0.0000000), wk =   0.0102041
        k(   12) = (   0.0000000   0.2857143   0.1250000), wk =   0.0204082
        k(   13) = (   0.0000000   0.2857143   0.2500000), wk =   0.0204082
        k(   14) = (   0.0000000   0.2857143   0.3750000), wk =   0.0204082
        k(   15) = (   0.0000000   0.2857143  -0.5000000), wk =   0.0102041
        k(   16) = (   0.0000000   0.4285714   0.0000000), wk =   0.0102041
        k(   17) = (   0.0000000   0.4285714   0.1250000), wk =   0.0204082
        k(   18) = (   0.0000000   0.4285714   0.2500000), wk =   0.0204082
        k(   19) = (   0.0000000   0.4285714   0.3750000), wk =   0.0204082
        k(   20) = (   0.0000000   0.4285714  -0.5000000), wk =   0.0102041
        k(   21) = (   0.1428571   0.1428571   0.0000000), wk =   0.0102041
        k(   22) = (   0.1428571   0.1428571   0.1250000), wk =   0.0204082
        k(   23) = (   0.1428571   0.1428571   0.2500000), wk =   0.0204082
        k(   24) = (   0.1428571   0.1428571   0.3750000), wk =   0.0204082
        k(   25) = (   0.1428571   0.1428571  -0.5000000), wk =   0.0102041
        k(   26) = (   0.1428571   0.2857143   0.0000000), wk =   0.0204082
        k(   27) = (   0.1428571   0.2857143   0.1250000), wk =   0.0408163
        k(   28) = (   0.1428571   0.2857143   0.2500000), wk =   0.0408163
        k(   29) = (   0.1428571   0.2857143   0.3750000), wk =   0.0408163
        k(   30) = (   0.1428571   0.2857143  -0.5000000), wk =   0.0204082
        k(   31) = (   0.1428571   0.4285714   0.0000000), wk =   0.0204082
        k(   32) = (   0.1428571   0.4285714   0.1250000), wk =   0.0408163
        k(   33) = (   0.1428571   0.4285714   0.2500000), wk =   0.0408163
        k(   34) = (   0.1428571   0.4285714   0.3750000), wk =   0.0408163
        k(   35) = (   0.1428571   0.4285714  -0.5000000), wk =   0.0204082
        k(   36) = (   0.2857143   0.2857143   0.0000000), wk =   0.0102041
        k(   37) = (   0.2857143   0.2857143   0.1250000), wk =   0.0204082
        k(   38) = (   0.2857143   0.2857143   0.2500000), wk =   0.0204082
        k(   39) = (   0.2857143   0.2857143   0.3750000), wk =   0.0204082
        k(   40) = (   0.2857143   0.2857143  -0.5000000), wk =   0.0102041
        k(   41) = (   0.2857143   0.4285714   0.0000000), wk =   0.0204082
        k(   42) = (   0.2857143   0.4285714   0.1250000), wk =   0.0408163
        k(   43) = (   0.2857143   0.4285714   0.2500000), wk =   0.0408163
        k(   44) = (   0.2857143   0.4285714   0.3750000), wk =   0.0408163
        k(   45) = (   0.2857143   0.4285714  -0.5000000), wk =   0.0204082
        k(   46) = (   0.4285714   0.4285714   0.0000000), wk =   0.0102041
        k(   47) = (   0.4285714   0.4285714   0.1250000), wk =   0.0204082
        k(   48) = (   0.4285714   0.4285714   0.2500000), wk =   0.0204082
        k(   49) = (   0.4285714   0.4285714   0.3750000), wk =   0.0204082
        k(   50) = (   0.4285714   0.4285714  -0.5000000), wk =   0.0102041

     Dense  grid:    42999 G-vectors     FFT dimensions: (  50,  50,  36)

     Dynamical RAM for                 wfc:       0.36 MB

     Dynamical RAM for     wfc (w. buffer):      18.19 MB

     Dynamical RAM for           str. fact:       0.04 MB

     Dynamical RAM for           local pot:       0.00 MB

     Dynamical RAM for          nlocal pot:       0.46 MB

     Dynamical RAM for                qrad:      20.10 MB

     Dynamical RAM for          rho,v,vnew:       0.70 MB

     Dynamical RAM for               rhoin:       0.23 MB

     Dynamical RAM for            rho*nmix:       1.31 MB

     Dynamical RAM for           G-vectors:       0.09 MB

     Dynamical RAM for          h,s,v(r/c):       0.04 MB

     Dynamical RAM for          <psi|beta>:       0.38 MB

     Dynamical RAM for                 psi:       0.71 MB

     Dynamical RAM for                hpsi:       0.71 MB

     Dynamical RAM for      wfcinit/wfcrot:       0.67 MB

     Estimated static dynamical RAM per process >      40.18 MB

     Estimated max dynamical RAM per process >      43.35 MB

     Estimated total dynamical RAM >       1.35 GB

     Initial potential from superposition of free atoms

     starting charge      57.9997, renormalised to      58.0000
     Starting wfcs are   72 randomized atomic wfcs

     total cpu time spent up to now is        2.7 secs

     Self-consistent Calculation

     iteration #  1     ecut=    80.00 Ry     beta= 0.70
     Davidson diagonalization with overlap

---- Real-time Memory Report at c_bands before calling an iterative solver
            94 MiB given to the printing process from OS
             0 MiB allocation reported by mallinfo(arena+hblkhd)
        228745 MiB available memory on the node where the printing process lives
------------------
     ethr =  1.00E-02,  avg # of iterations =  2.7

     total cpu time spent up to now is       11.4 secs

     total energy              =    -552.42692638 Ry
     estimated scf accuracy    <       1.21469137 Ry

     iteration #  2     ecut=    80.00 Ry     beta= 0.70
     Davidson diagonalization with overlap

---- Real-time Memory Report at c_bands before calling an iterative solver
           102 MiB given to the printing process from OS
             0 MiB allocation reported by mallinfo(arena+hblkhd)
        228581 MiB available memory on the node where the printing process lives
------------------
     ethr =  2.09E-03,  avg # of iterations =  2.0

     total cpu time spent up to now is       20.8 secs

     total energy              =    -552.28111023 Ry
     estimated scf accuracy    <       4.28309349 Ry

     iteration #  3     ecut=    80.00 Ry     beta= 0.70
     Davidson diagonalization with overlap

---- Real-time Memory Report at c_bands before calling an iterative solver
           107 MiB given to the printing process from OS
             0 MiB allocation reported by mallinfo(arena+hblkhd)
        228519 MiB available memory on the node where the printing process lives
------------------
     ethr =  2.09E-03,  avg # of iterations =  2.0

     total cpu time spent up to now is       29.6 secs

     total energy              =    -553.07567499 Ry
     estimated scf accuracy    <       0.03396216 Ry

     iteration #  4     ecut=    80.00 Ry     beta= 0.70
     Davidson diagonalization with overlap

---- Real-time Memory Report at c_bands before calling an iterative solver
           107 MiB given to the printing process from OS
             0 MiB allocation reported by mallinfo(arena+hblkhd)
        228514 MiB available memory on the node where the printing process lives
------------------
     ethr =  5.86E-05,  avg # of iterations =  2.8

     total cpu time spent up to now is       38.7 secs

     total energy              =    -553.07924601 Ry
     estimated scf accuracy    <       0.00487181 Ry

     iteration #  5     ecut=    80.00 Ry     beta= 0.70
     Davidson diagonalization with overlap

---- Real-time Memory Report at c_bands before calling an iterative solver
           108 MiB given to the printing process from OS
             0 MiB allocation reported by mallinfo(arena+hblkhd)
        228511 MiB available memory on the node where the printing process lives
------------------
     ethr =  8.40E-06,  avg # of iterations =  2.6

     total cpu time spent up to now is       46.7 secs

     total energy              =    -553.08010320 Ry
     estimated scf accuracy    <       0.00026361 Ry

     iteration #  6     ecut=    80.00 Ry     beta= 0.70
     Davidson diagonalization with overlap

---- Real-time Memory Report at c_bands before calling an iterative solver
           108 MiB given to the printing process from OS
             0 MiB allocation reported by mallinfo(arena+hblkhd)
        228509 MiB available memory on the node where the printing process lives
------------------
     ethr =  4.55E-07,  avg # of iterations =  3.0

     total cpu time spent up to now is       54.8 secs

     total energy              =    -553.08013440 Ry
     estimated scf accuracy    <       0.00001165 Ry

     iteration #  7     ecut=    80.00 Ry     beta= 0.70
     Davidson diagonalization with overlap

---- Real-time Memory Report at c_bands before calling an iterative solver
           109 MiB given to the printing process from OS
             0 MiB allocation reported by mallinfo(arena+hblkhd)
        228507 MiB available memory on the node where the printing process lives
------------------
     ethr =  2.01E-08,  avg # of iterations =  2.0

     total cpu time spent up to now is       63.9 secs

     total energy              =    -553.08013815 Ry
     estimated scf accuracy    <       0.00000058 Ry

     iteration #  8     ecut=    80.00 Ry     beta= 0.70
     Davidson diagonalization with overlap

---- Real-time Memory Report at c_bands before calling an iterative solver
           110 MiB given to the printing process from OS
             0 MiB allocation reported by mallinfo(arena+hblkhd)
        228450 MiB available memory on the node where the printing process lives
------------------
     ethr =  9.99E-10,  avg # of iterations =  2.2

     total cpu time spent up to now is       71.9 secs

     total energy              =    -553.08013817 Ry
     estimated scf accuracy    <       0.00000010 Ry

     iteration #  9     ecut=    80.00 Ry     beta= 0.70
     Davidson diagonalization with overlap

---- Real-time Memory Report at c_bands before calling an iterative solver
           110 MiB given to the printing process from OS
             0 MiB allocation reported by mallinfo(arena+hblkhd)
        228447 MiB available memory on the node where the printing process lives
------------------
     ethr =  1.77E-10,  avg # of iterations =  2.2

     total cpu time spent up to now is       80.6 secs

     total energy              =    -553.08013819 Ry
     estimated scf accuracy    <          4.2E-09 Ry

     iteration # 10     ecut=    80.00 Ry     beta= 0.70
     Davidson diagonalization with overlap

---- Real-time Memory Report at c_bands before calling an iterative solver
           110 MiB given to the printing process from OS
             0 MiB allocation reported by mallinfo(arena+hblkhd)
        228448 MiB available memory on the node where the printing process lives
------------------
     ethr =  7.18E-12,  avg # of iterations =  2.2

     total cpu time spent up to now is       89.5 secs

     End of self-consistent calculation

          k = 0.0000 0.0000 0.0000 (  5409 PWs)   bands (ev):

   -79.3860 -79.3860 -79.3847 -79.3847 -46.2284 -46.2284 -46.2177 -46.2177
   -32.7663 -32.7663 -32.7535 -32.7535 -32.6251 -32.6251 -32.6128 -32.6128
    -7.0717  -7.0717  -5.9156  -5.9156  -5.0006  -5.0006  -4.7992  -4.7992
     4.2710   4.2710   4.5187   4.5187   6.0337   6.0337   6.1453   6.1453
     6.2579   6.2579   8.7883   8.7883   8.9406   8.9406   9.1982   9.1982
    10.3356  10.3356  10.9914  10.9914  10.9928  10.9928  11.0339  11.0339
    11.2004  11.2004  11.3796  11.3796  11.6497  11.6497  11.6753  11.6753
    12.0571  12.0571  14.6443  14.6443  15.0681  15.0681  17.6893  17.6893
    17.8980  17.8980  18.0465  18.0465  19.4505  19.4505

     occupation numbers 
     1.0000   1.0000   1.0000   1.0000   1.0000   1.0000   1.0000   1.0000
     1.0000   1.0000   1.0000   1.0000   1.0000   1.0000   1.0000   1.0000
     1.0000   1.0000   1.0000   1.0000   1.0000   1.0000   1.0000   1.0000
     1.0000   1.0000   1.0000   1.0000   1.0000   1.0000   1.0000   1.0000
     1.0000   1.0000   1.0000   1.0000   1.0000   1.0000   1.0000   1.0000
     1.0000   1.0000   1.0000   1.0000   1.0000   1.0000   1.0000   1.0000
     1.0000   1.0000   1.0000   1.0000   1.0000   1.0000   1.0000   1.0000
     1.0000   1.0000  -0.0000  -0.0000  -0.0000  -0.0000  -0.0000  -0.0000
    -0.0000  -0.0000  -0.0000  -0.0000  -0.0000  -0.0000

          k = 0.0000 0.0000 0.1781 (  5369 PWs)   bands (ev):

   -79.3856 -79.3856 -79.3844 -79.3844 -46.2297 -46.2297 -46.2197 -46.2197
   -32.7693 -32.7693 -32.7618 -32.7618 -32.6317 -32.6317 -32.6160 -32.6160
    -6.9304  -6.9304  -5.8426  -5.8426  -5.0665  -5.0665  -4.8876  -4.8876
     4.4770   4.4770   4.6672   4.6672   6.1567   6.1567   6.2307   6.2307
     6.4085   6.4085   8.2488   8.2488   9.0461   9.0461   9.3059   9.3059
     9.5397   9.5397  10.1244  10.1244  10.2324  10.2324  11.2906  11.2906
    11.6184  11.6184  11.6425  11.6425  11.7580  11.7580  12.3624  12.3624
    12.4504  12.4504  14.9216  14.9216  14.9722  14.9722  17.3278  17.3278
    17.6443  17.6443  18.2996  18.2996  19.1832  19.1832

     occupation numbers 
     1.0000   1.0000   1.0000   1.0000   1.0000   1.0000   1.0000   1.0000
     1.0000   1.0000   1.0000   1.0000   1.0000   1.0000   1.0000   1.0000
     1.0000   1.0000   1.0000   1.0000   1.0000   1.0000   1.0000   1.0000
     1.0000   1.0000   1.0000   1.0000   1.0000   1.0000   1.0000   1.0000
     1.0000   1.0000   1.0000   1.0000   1.0000   1.0000   1.0000   1.0000
     1.0000   1.0000   1.0000   1.0000   1.0000   1.0000   1.0000   1.0000
     1.0000   1.0000   1.0000   1.0000   1.0000   1.0000   1.0000   1.0000
     1.0000   1.0000  -0.0000  -0.0000  -0.0000  -0.0000  -0.0000  -0.0000
    -0.0000  -0.0000  -0.0000  -0.0000  -0.0000  -0.0000

          k = 0.0000 0.0000 0.3562 (  5381 PWs)   bands (ev):

   -79.3847 -79.3847 -79.3837 -79.3837 -46.2324 -46.2324 -46.2249 -46.2249
   -32.7827 -32.7827 -32.7812 -32.7812 -32.6423 -32.6423 -32.6229 -32.6229
    -6.5569  -6.5569  -5.6890  -5.6890  -5.2159  -5.2159  -5.0960  -5.0960
     5.0392   5.0392   5.0468   5.0468   6.4680   6.4680   6.4711   6.4711
     6.8570   6.8570   7.2532   7.2532   8.2933   8.2933   9.1161   9.1161
     9.3313   9.3313   9.4473   9.4473   9.7674   9.7674  10.5840  10.5840
    11.7977  11.7977  11.9530  11.9530  12.1503  12.1503  13.1840  13.1840
    13.2038  13.2038  14.5177  14.5177  15.6416  15.6416  16.6626  16.6626
    16.9546  16.9546  18.0002  18.0002  19.8608  19.8608

     occupation numbers 
     1.0000   1.0000   1.0000   1.0000   1.0000   1.0000   1.0000   1.0000
     1.0000   1.0000   1.0000   1.0000   1.0000   1.0000   1.0000   1.0000
     1.0000   1.0000   1.0000   1.0000   1.0000   1.0000   1.0000   1.0000
     1.0000   1.0000   1.0000   1.0000   1.0000   1.0000   1.0000   1.0000
     1.0000   1.0000   1.0000   1.0000   1.0000   1.0000   1.0000   1.0000
     1.0000   1.0000   1.0000   1.0000   1.0000   1.0000   1.0000   1.0000
     1.0000   1.0000   1.0000   1.0000   1.0000   1.0000   1.0000   1.0000
     1.0000   1.0000  -0.0000  -0.0000  -0.0000  -0.0000  -0.0000  -0.0000
    -0.0000  -0.0000  -0.0000  -0.0000  -0.0000  -0.0000

          k = 0.0000 0.0000 0.5343 (  5393 PWs)   bands (ev):

   -79.3836 -79.3836 -79.3831 -79.3831 -46.2347 -46.2347 -46.2306 -46.2306
   -32.8042 -32.8042 -32.8003 -32.8003 -32.6441 -32.6441 -32.6304 -32.6304
    -6.0921  -6.0921  -5.6113  -5.6113  -5.3472  -5.3472  -5.3025  -5.3025
     5.4608   5.4608   5.7066   5.7066   6.4522   6.4522   6.8530   6.8530
     6.9026   6.9026   7.3418   7.3418   7.5956   7.5956   8.4821   8.4821
     8.6110   8.6110   9.5869   9.5869   9.7607   9.7607   9.9620   9.9620
    11.7916  11.7916  12.1400  12.1400  12.4567  12.4567  13.5923  13.5923
    13.8285  13.8285  14.0992  14.0992  16.0596  16.0596  16.2264  16.2264
    16.5466  16.5466  17.0905  17.0905  21.4182  21.4182

     occupation numbers 
     1.0000   1.0000   1.0000   1.0000   1.0000   1.0000   1.0000   1.0000
     1.0000   1.0000   1.0000   1.0000   1.0000   1.0000   1.0000   1.0000
     1.0000   1.0000   1.0000   1.0000   1.0000   1.0000   1.0000   1.0000
     1.0000   1.0000   1.0000   1.0000   1.0000   1.0000   1.0000   1.0000
     1.0000   1.0000   1.0000   1.0000   1.0000   1.0000   1.0000   1.0000
     1.0000   1.0000   1.0000   1.0000   1.0000   1.0000   1.0000   1.0000
     1.0000   1.0000   1.0000   1.0000   1.0000   1.0000   1.0000   1.0000
     1.0124   1.0124  -0.0001  -0.0001  -0.0000  -0.0000  -0.0000  -0.0000
    -0.0000  -0.0000  -0.0000  -0.0000  -0.0000  -0.0000

          k = 0.0000 0.0000-0.7124 (  5314 PWs)   bands (ev):

   -79.3831 -79.3831 -79.3831 -79.3831 -46.2342 -46.2342 -46.2342 -46.2342
   -32.8115 -32.8115 -32.8115 -32.8115 -32.6381 -32.6381 -32.6381 -32.6381
    -5.7308  -5.7308  -5.7308  -5.7308  -5.3981  -5.3981  -5.3981  -5.3981
     5.7340   5.7340   5.7340   5.7340   6.7037   6.7037   6.7037   6.7037
     7.1008   7.1008   7.1008   7.1008   8.2032   8.2032   8.2032   8.2032
     8.5511   8.5511   8.5511   8.5511   9.9595   9.9595   9.9595   9.9595
    11.8956  11.8956  11.8956  11.8956  13.0802  13.0802  13.0802  13.0802
    14.1236  14.1236  14.1236  14.1236  16.0940  16.0940  16.0940  16.0940
    16.6089  16.6089  16.6089  16.6089  22.9255  22.9255

     occupation numbers 
     1.0000   1.0000   1.0000   1.0000   1.0000   1.0000   1.0000   1.0000
     1.0000   1.0000   1.0000   1.0000   1.0000   1.0000   1.0000   1.0000
     1.0000   1.0000   1.0000   1.0000   1.0000   1.0000   1.0000   1.0000
     1.0000   1.0000   1.0000   1.0000   1.0000   1.0000   1.0000   1.0000
     1.0000   1.0000   1.0000   1.0000   1.0000   1.0000   1.0000   1.0000
     1.0000   1.0000   1.0000   1.0000   1.0000   1.0000   1.0000   1.0000
     1.0000   1.0000   1.0000   1.0000   1.0000   1.0000   1.0000   1.0000
    -0.0000  -0.0000  -0.0000  -0.0000  -0.0000  -0.0000  -0.0000  -0.0000
    -0.0000  -0.0000  -0.0000  -0.0000  -0.0000  -0.0000

          k = 0.0000 0.1429 0.0000 (  5381 PWs)   bands (ev):

   -79.3860 -79.3860 -79.3848 -79.3848 -46.2279 -46.2279 -46.2182 -46.2182
   -32.7651 -32.7651 -32.7536 -32.7536 -32.6252 -32.6252 -32.6142 -32.6142
    -6.9948  -6.9948  -5.9065  -5.9065  -5.0670  -5.0670  -4.8754  -4.8754
     4.4661   4.4661   4.6663   4.6663   6.0633   6.0633   6.1628   6.1628
     6.3853   6.3853   8.6490   8.6490   8.6921   8.6921   8.9252   8.9252
     9.9478   9.9478  10.3711  10.3711  10.7304  10.7304  11.4008  11.4008
    11.4788  11.4788  11.5364  11.5364  11.7549  11.7549  11.8972  11.8972
    12.3066  12.3066  14.8869  14.8869  15.0069  15.0069  17.6120  17.6120
    17.9381  17.9381  18.2507  18.2507  19.2665  19.2665

     occupation numbers 
     1.0000   1.0000   1.0000   1.0000   1.0000   1.0000   1.0000   1.0000
     1.0000   1.0000   1.0000   1.0000   1.0000   1.0000   1.0000   1.0000
     1.0000   1.0000   1.0000   1.0000   1.0000   1.0000   1.0000   1.0000
     1.0000   1.0000   1.0000   1.0000   1.0000   1.0000   1.0000   1.0000
     1.0000   1.0000   1.0000   1.0000   1.0000   1.0000   1.0000   1.0000
     1.0000   1.0000   1.0000   1.0000   1.0000   1.0000   1.0000   1.0000
     1.0000   1.0000   1.0000   1.0000   1.0000   1.0000   1.0000   1.0000
     1.0000   1.0000  -0.0000  -0.0000  -0.0000  -0.0000  -0.0000  -0.0000
    -0.0000  -0.0000  -0.0000  -0.0000  -0.0000  -0.0000

          k = 0.0000 0.1429 0.1781 (  5366 PWs)   bands (ev):

   -79.3856 -79.3856 -79.3845 -79.3845 -46.2292 -46.2292 -46.2202 -46.2202
   -32.7694 -32.7694 -32.7606 -32.7606 -32.6318 -32.6318 -32.6172 -32.6172
    -6.8570  -6.8570  -5.8293  -5.8293  -5.1306  -5.1306  -4.9580  -4.9580
     4.6527   4.6527   4.8128   4.8128   6.1621   6.1621   6.2300   6.2300
     6.5786   6.5786   8.1363   8.1363   8.7411   8.7411   9.0039   9.0039
     9.2923   9.2923  10.1116  10.1116  10.1657  10.1657  11.3745  11.3745
    11.4541  11.4541  11.9036  11.9036  11.9668  11.9668  12.3619  12.3619
    12.6193  12.6193  14.7751  14.7751  15.2700  15.2700  17.1850  17.1850
    17.5047  17.5047  18.6955  18.6955  19.0651  19.0651

     occupation numbers 
     1.0000   1.0000   1.0000   1.0000   1.0000   1.0000   1.0000   1.0000
     1.0000   1.0000   1.0000   1.0000   1.0000   1.0000   1.0000   1.0000
     1.0000   1.0000   1.0000   1.0000   1.0000   1.0000   1.0000   1.0000
     1.0000   1.0000   1.0000   1.0000   1.0000   1.0000   1.0000   1.0000
     1.0000   1.0000   1.0000   1.0000   1.0000   1.0000   1.0000   1.0000
     1.0000   1.0000   1.0000   1.0000   1.0000   1.0000   1.0000   1.0000
     1.0000   1.0000   1.0000   1.0000   1.0000   1.0000   1.0000   1.0000
     1.0000   1.0000  -0.0000  -0.0000  -0.0000  -0.0000  -0.0000  -0.0000
    -0.0000  -0.0000  -0.0000  -0.0000  -0.0000  -0.0000

          k = 0.0000 0.1429 0.3562 (  5385 PWs)   bands (ev):

   -79.3846 -79.3846 -79.3838 -79.3838 -46.2321 -46.2321 -46.2252 -46.2252
   -32.7869 -32.7869 -32.7765 -32.7765 -32.6424 -32.6424 -32.6234 -32.6234
    -6.4961  -6.4961  -5.6702  -5.6702  -5.2698  -5.2698  -5.1475  -5.1475
     5.1367   5.1367   5.1943   5.1943   6.4135   6.4135   6.4828   6.4828
     7.0466   7.0466   7.2053   7.2053   7.9474   7.9474   9.0656   9.0656
     9.3430   9.3430   9.4612   9.4612   9.5419   9.5419  10.7745  10.7745
    11.6562  11.6562  12.0617  12.0617  12.2846  12.2846  13.0607  13.0607
    13.2848  13.2848  14.4325  14.4325  15.8384  15.8384  16.4379  16.4379
    16.8411  16.8411  18.2346  18.2346  20.0357  20.0357

     occupation numbers 
     1.0000   1.0000   1.0000   1.0000   1.0000   1.0000   1.0000   1.0000
     1.0000   1.0000   1.0000   1.0000   1.0000   1.0000   1.0000   1.0000
     1.0000   1.0000   1.0000   1.0000   1.0000   1.0000   1.0000   1.0000
     1.0000   1.0000   1.0000   1.0000   1.0000   1.0000   1.0000   1.0000
     1.0000   1.0000   1.0000   1.0000   1.0000   1.0000   1.0000   1.0000
     1.0000   1.0000   1.0000   1.0000   1.0000   1.0000   1.0000   1.0000
     1.0000   1.0000   1.0000   1.0000   1.0000   1.0000   1.0000   1.0000
     1.0000   1.0000  -0.0000  -0.0000  -0.0000  -0.0000  -0.0000  -0.0000
    -0.0000  -0.0000  -0.0000  -0.0000  -0.0000  -0.0000

          k = 0.0000 0.1429 0.5343 (  5374 PWs)   bands (ev):

   -79.3836 -79.3836 -79.3832 -79.3832 -46.2345 -46.2345 -46.2307 -46.2307
   -32.8089 -32.8089 -32.7956 -32.7956 -32.6448 -32.6448 -32.6298 -32.6298
    -6.0616  -6.0616  -5.6226  -5.6226  -5.3760  -5.3760  -5.2956  -5.2956
     5.5363   5.5363   5.7467   5.7467   6.2097   6.2097   6.7141   6.7141
     7.0983   7.0983   7.2671   7.2671   7.8215   7.8215   8.5185   8.5185
     8.7150   8.7150   9.5580   9.5580   9.7762   9.7762   9.8845   9.8845
    11.8585  11.8585  12.1533  12.1533  12.2716  12.2716  13.3257  13.3257
    13.8370  13.8370  14.2148  14.2148  15.8170  15.8170  15.9290  15.9290
    16.7973  16.7973  17.5620  17.5620  21.5225  21.5225

     occupation numbers 
     1.0000   1.0000   1.0000   1.0000   1.0000   1.0000   1.0000   1.0000
     1.0000   1.0000   1.0000   1.0000   1.0000   1.0000   1.0000   1.0000
     1.0000   1.0000   1.0000   1.0000   1.0000   1.0000   1.0000   1.0000
     1.0000   1.0000   1.0000   1.0000   1.0000   1.0000   1.0000   1.0000
     1.0000   1.0000   1.0000   1.0000   1.0000   1.0000   1.0000   1.0000
     1.0000   1.0000   1.0000   1.0000   1.0000   1.0000   1.0000   1.0000
     1.0000   1.0000   1.0000   1.0000   1.0000   1.0000   1.0000   1.0000
     0.9850   0.9850  -0.0000  -0.0000  -0.0000  -0.0000  -0.0000  -0.0000
    -0.0000  -0.0000  -0.0000  -0.0000  -0.0000  -0.0000

          k = 0.0000 0.1429-0.7124 (  5376 PWs)   bands (ev):

   -79.3831 -79.3831 -79.3831 -79.3831 -46.2347 -46.2347 -46.2338 -46.2338
   -32.8184 -32.8184 -32.8048 -32.8048 -32.6425 -32.6425 -32.6337 -32.6337
    -5.7596  -5.7596  -5.7428  -5.7428  -5.4180  -5.4180  -5.3301  -5.3301
     5.7230   5.7230   5.7744   5.7744   6.3104   6.3104   6.4066   6.4066
     7.4195   7.4195   7.4492   7.4492   8.1203   8.1203   8.2867   8.2867
     8.7572   8.7572   8.8078   8.8078   9.8126   9.8126   9.8497   9.8497
    11.8821  11.8821  11.9124  11.9124  12.7466  12.7466  12.9435  12.9435
    14.0468  14.0468  14.3146  14.3146  15.6404  15.6404  15.7402  15.7402
    17.0303  17.0303  17.2274  17.2274  22.9344  22.9461

     occupation numbers 
     1.0000   1.0000   1.0000   1.0000   1.0000   1.0000   1.0000   1.0000
     1.0000   1.0000   1.0000   1.0000   1.0000   1.0000   1.0000   1.0000
     1.0000   1.0000   1.0000   1.0000   1.0000   1.0000   1.0000   1.0000
     1.0000   1.0000   1.0000   1.0000   1.0000   1.0000   1.0000   1.0000
     1.0000   1.0000   1.0000   1.0000   1.0000   1.0000   1.0000   1.0000
     1.0000   1.0000   1.0000   1.0000   1.0000   1.0000   1.0000   1.0000
     1.0000   1.0000   1.0000   1.0000   1.0000   1.0000   1.0000   1.0000
    -0.0027  -0.0027  -0.0000  -0.0000  -0.0000  -0.0000  -0.0000  -0.0000
    -0.0000  -0.0000  -0.0000  -0.0000  -0.0000  -0.0000

          k = 0.0000 0.2857 0.0000 (  5376 PWs)   bands (ev):

   -79.3858 -79.3858 -79.3850 -79.3850 -46.2264 -46.2264 -46.2197 -46.2197
   -32.7620 -32.7620 -32.7539 -32.7539 -32.6251 -32.6251 -32.6175 -32.6175
    -6.7758  -6.7758  -5.9255  -5.9255  -5.2305  -5.2305  -5.0355  -5.0355
     4.9697   4.9697   5.0727   5.0727   6.1321   6.1321   6.2036   6.2036
     6.7683   6.7683   7.9958   7.9958   8.1691   8.1691   8.6476   8.6476
     9.3439   9.3439   9.4164   9.4164  10.6070  10.6070  11.2941  11.2941
    11.7908  11.7908  11.9020  11.9020  12.1269  12.1269  12.3048  12.3048
    12.7641  12.7641  14.4905  14.4905  15.8310  15.8310  17.4213  17.4213
    17.6808  17.6808  18.7282  18.7282  19.1527  19.1527

     occupation numbers 
     1.0000   1.0000   1.0000   1.0000   1.0000   1.0000   1.0000   1.0000
     1.0000   1.0000   1.0000   1.0000   1.0000   1.0000   1.0000   1.0000
     1.0000   1.0000   1.0000   1.0000   1.0000   1.0000   1.0000   1.0000
     1.0000   1.0000   1.0000   1.0000   1.0000   1.0000   1.0000   1.0000
     1.0000   1.0000   1.0000   1.0000   1.0000   1.0000   1.0000   1.0000
     1.0000   1.0000   1.0000   1.0000   1.0000   1.0000   1.0000   1.0000
     1.0000   1.0000   1.0000   1.0000   1.0000   1.0000   1.0000   1.0000
     1.0000   1.0000  -0.0000  -0.0000  -0.0000  -0.0000  -0.0000  -0.0000
    -0.0000  -0.0000  -0.0000  -0.0000  -0.0000  -0.0000

          k = 0.0000 0.2857 0.1781 (  5376 PWs)   bands (ev):

   -79.3854 -79.3854 -79.3846 -79.3846 -46.2278 -46.2278 -46.2216 -46.2216
   -32.7695 -32.7695 -32.7583 -32.7583 -32.6318 -32.6318 -32.6199 -32.6199
    -6.6475  -6.6475  -5.8311  -5.8311  -5.2962  -5.2962  -5.1047  -5.1047
     5.1111   5.1111   5.2201   5.2201   6.2020   6.2020   6.2504   6.2504
     6.9606   6.9606   7.9983   7.9983   8.1313   8.1313   8.3602   8.3602
     8.5927   8.5927   9.6381   9.6381  10.3968  10.3968  11.1539  11.1539
    11.7711  11.7711  12.1131  12.1131  12.2918  12.2918  12.5592  12.5592
    12.9735  12.9735  14.3896  14.3896  15.9916  15.9916  16.9181  16.9181
    17.2561  17.2561  18.6264  18.6264  19.6218  19.6218

     occupation numbers 
     1.0000   1.0000   1.0000   1.0000   1.0000   1.0000   1.0000   1.0000
     1.0000   1.0000   1.0000   1.0000   1.0000   1.0000   1.0000   1.0000
     1.0000   1.0000   1.0000   1.0000   1.0000   1.0000   1.0000   1.0000
     1.0000   1.0000   1.0000   1.0000   1.0000   1.0000   1.0000   1.0000
     1.0000   1.0000   1.0000   1.0000   1.0000   1.0000   1.0000   1.0000
     1.0000   1.0000   1.0000   1.0000   1.0000   1.0000   1.0000   1.0000
     1.0000   1.0000   1.0000   1.0000   1.0000   1.0000   1.0000   1.0000
     1.0000   1.0000  -0.0000  -0.0000  -0.0000  -0.0000  -0.0000  -0.0000
    -0.0000  -0.0000  -0.0000  -0.0000  -0.0000  -0.0000

          k = 0.0000 0.2857 0.3562 (  5372 PWs)   bands (ev):

   -79.3845 -79.3845 -79.3839 -79.3839 -46.2311 -46.2311 -46.2262 -46.2262
   -32.7905 -32.7905 -32.7719 -32.7719 -32.6423 -32.6423 -32.6249 -32.6249
    -6.3226  -6.3226  -5.6286  -5.6286  -5.4378  -5.4378  -5.2518  -5.2518
     5.4497   5.4497   5.5510   5.5510   6.3940   6.3940   6.5132   6.5132
     6.9520   6.9520   7.3520   7.3520   7.6244   7.6244   8.5202   8.5202
     8.8564   8.8564   9.4465   9.4465   9.8336   9.8336  10.9874  10.9874
    11.4131  11.4131  12.3617  12.3617  12.4825  12.4825  12.8684  12.8684
    13.4489  13.4489  14.2164  14.2164  15.9678  15.9678  16.1196  16.1196
    16.9401  16.9401  18.3655  18.3655  20.6292  20.6292

     occupation numbers 
     1.0000   1.0000   1.0000   1.0000   1.0000   1.0000   1.0000   1.0000
     1.0000   1.0000   1.0000   1.0000   1.0000   1.0000   1.0000   1.0000
     1.0000   1.0000   1.0000   1.0000   1.0000   1.0000   1.0000   1.0000
     1.0000   1.0000   1.0000   1.0000   1.0000   1.0000   1.0000   1.0000
     1.0000   1.0000   1.0000   1.0000   1.0000   1.0000   1.0000   1.0000
     1.0000   1.0000   1.0000   1.0000   1.0000   1.0000   1.0000   1.0000
     1.0000   1.0000   1.0000   1.0000   1.0000   1.0000   1.0000   1.0000
     1.0000   1.0000  -0.0000  -0.0000  -0.0000  -0.0000  -0.0000  -0.0000
    -0.0000  -0.0000  -0.0000  -0.0000  -0.0000  -0.0000

          k = 0.0000 0.2857 0.5343 (  5372 PWs)   bands (ev):

   -79.3835 -79.3835 -79.3832 -79.3832 -46.2341 -46.2341 -46.2312 -46.2312
   -32.8138 -32.8138 -32.7906 -32.7906 -32.6461 -32.6461 -32.6287 -32.6287
    -5.9778  -5.9778  -5.6641  -5.6641  -5.4229  -5.4229  -5.2971  -5.2971
     5.6921   5.6921   5.8215   5.8215   6.0052   6.0052   6.4144   6.4144
     7.1432   7.1432   7.4055   7.4055   8.0823   8.0823   8.6541   8.6541
     8.9487   8.9487   9.2398   9.2398   9.5706   9.5706  10.3815  10.3815
    11.5725  11.5725  12.1159  12.1159  12.2092  12.2092  12.8034  12.8034
    13.9214  13.9214  14.3146  14.3146  15.3817  15.3817  15.5930  15.5930
    17.3886  17.3886  18.0994  18.0994  21.8498  21.8498

     occupation numbers 
     1.0000   1.0000   1.0000   1.0000   1.0000   1.0000   1.0000   1.0000
     1.0000   1.0000   1.0000   1.0000   1.0000   1.0000   1.0000   1.0000
     1.0000   1.0000   1.0000   1.0000   1.0000   1.0000   1.0000   1.0000
     1.0000   1.0000   1.0000   1.0000   1.0000   1.0000   1.0000   1.0000
     1.0000   1.0000   1.0000   1.0000   1.0000   1.0000   1.0000   1.0000
     1.0000   1.0000   1.0000   1.0000   1.0000   1.0000   1.0000   1.0000
     1.0000   1.0000   1.0000   1.0000   1.0000   1.0000   1.0000   1.0000
     0.1531   0.1531  -0.0000  -0.0000  -0.0000  -0.0000  -0.0000  -0.0000
    -0.0000  -0.0000  -0.0000  -0.0000  -0.0000  -0.0000

          k = 0.0000 0.2857-0.7124 (  5352 PWs)   bands (ev):

   -79.3831 -79.3831 -79.3831 -79.3831 -46.2350 -46.2350 -46.2335 -46.2335
   -32.8239 -32.8239 -32.7996 -32.7996 -32.6460 -32.6460 -32.6302 -32.6302
    -5.7968  -5.7968  -5.7860  -5.7860  -5.3947  -5.3947  -5.2562  -5.2562
     5.6178   5.6178   5.6989   5.6989   6.1035   6.1035   6.2042   6.2042
     7.6098   7.6098   7.8168   7.8168   8.1531   8.1531   8.3655   8.3655
     9.2447   9.2447   9.2791   9.2791   9.6584   9.6584   9.6622   9.6622
    11.8051  11.8051  11.8820  11.8820  12.1194  12.1194  12.4890  12.4890
    14.1034  14.1034  14.4507  14.4507  15.2498  15.2498  15.3066  15.3066
    17.7127  17.7127  17.9079  17.9079  22.9973  22.9989

     occupation numbers 
     1.0000   1.0000   1.0000   1.0000   1.0000   1.0000   1.0000   1.0000
     1.0000   1.0000   1.0000   1.0000   1.0000   1.0000   1.0000   1.0000
     1.0000   1.0000   1.0000   1.0000   1.0000   1.0000   1.0000   1.0000
     1.0000   1.0000   1.0000   1.0000   1.0000   1.0000   1.0000   1.0000
     1.0000   1.0000   1.0000   1.0000   1.0000   1.0000   1.0000   1.0000
     1.0000   1.0000   1.0000   1.0000   1.0000   1.0000   1.0000   1.0000
     1.0000   1.0000   1.0000   1.0000   1.0000   1.0000   1.0000   1.0000
    -0.0000  -0.0000  -0.0000  -0.0000  -0.0000  -0.0000  -0.0000  -0.0000
    -0.0000  -0.0000  -0.0000  -0.0000  -0.0000  -0.0000

          k = 0.0000 0.4286 0.0000 (  5372 PWs)   bands (ev):

   -79.3855 -79.3855 -79.3852 -79.3852 -46.2243 -46.2243 -46.2219 -46.2219
   -32.7583 -32.7583 -32.7554 -32.7554 -32.6240 -32.6240 -32.6213 -32.6213
    -6.4534  -6.4534  -6.1153  -6.1153  -5.2973  -5.2973  -5.1970  -5.1970
     5.5089   5.5089   5.5567   5.5567   6.2143   6.2143   6.2385   6.2385
     7.2462   7.2462   7.4586   7.4586   7.5617   7.5617   8.3413   8.3413
     8.6776   8.6776   8.9300   8.9300  10.7134  10.7134  10.9766  10.9766
    12.0542  12.0542  12.1274  12.1274  12.4125  12.4125  12.5262  12.5262
    13.3313  13.3313  13.9341  13.9341  16.8465  16.8465  17.2849  17.2849
    17.4462  17.4462  17.9272  17.9272  20.2436  20.2436

     occupation numbers 
     1.0000   1.0000   1.0000   1.0000   1.0000   1.0000   1.0000   1.0000
     1.0000   1.0000   1.0000   1.0000   1.0000   1.0000   1.0000   1.0000
     1.0000   1.0000   1.0000   1.0000   1.0000   1.0000   1.0000   1.0000
     1.0000   1.0000   1.0000   1.0000   1.0000   1.0000   1.0000   1.0000
     1.0000   1.0000   1.0000   1.0000   1.0000   1.0000   1.0000   1.0000
     1.0000   1.0000   1.0000   1.0000   1.0000   1.0000   1.0000   1.0000
     1.0000   1.0000   1.0000   1.0000   1.0000   1.0000   1.0000   1.0000
     1.0000   1.0000   0.0603   0.0603  -0.0000  -0.0000  -0.0000  -0.0000
    -0.0000  -0.0000  -0.0000  -0.0000  -0.0000  -0.0000

          k = 0.0000 0.4286 0.1781 (  5370 PWs)   bands (ev):

   -79.3852 -79.3852 -79.3849 -79.3849 -46.2259 -46.2259 -46.2236 -46.2236
   -32.7693 -32.7693 -32.7566 -32.7566 -32.6316 -32.6316 -32.6224 -32.6224
    -6.3379  -6.3379  -6.0073  -6.0073  -5.3610  -5.3610  -5.2546  -5.2546
     5.6394   5.6394   5.7429   5.7429   6.1802   6.1802   6.2291   6.2291
     7.3814   7.3814   7.6138   7.6138   7.7324   7.7324   7.9056   7.9056
     8.2448   8.2448   8.8868   8.8868  10.6993  10.6993  10.9529  10.9529
    12.0002  12.0002  12.0986  12.0986  12.6340  12.6340  12.7973  12.7973
    13.3633  13.3633  13.9040  13.9040  16.5871  16.5871  16.8128  16.8128
    17.2464  17.2464  17.9667  17.9667  20.6745  20.6745

     occupation numbers 
     1.0000   1.0000   1.0000   1.0000   1.0000   1.0000   1.0000   1.0000
     1.0000   1.0000   1.0000   1.0000   1.0000   1.0000   1.0000   1.0000
     1.0000   1.0000   1.0000   1.0000   1.0000   1.0000   1.0000   1.0000
     1.0000   1.0000   1.0000   1.0000   1.0000   1.0000   1.0000   1.0000
     1.0000   1.0000   1.0000   1.0000   1.0000   1.0000   1.0000   1.0000
     1.0000   1.0000   1.0000   1.0000   1.0000   1.0000   1.0000   1.0000
     1.0000   1.0000   1.0000   1.0000   1.0000   1.0000   1.0000   1.0000
     1.0000   1.0000   0.3316   0.3316  -0.0000  -0.0000  -0.0000  -0.0000
    -0.0000  -0.0000  -0.0000  -0.0000  -0.0000  -0.0000

          k = 0.0000 0.4286 0.3562 (  5388 PWs)   bands (ev):

   -79.3843 -79.3843 -79.3841 -79.3841 -46.2298 -46.2298 -46.2276 -46.2276
   -32.7924 -32.7924 -32.7692 -32.7692 -32.6422 -32.6422 -32.6261 -32.6261
    -6.0646  -6.0646  -5.7711  -5.7711  -5.4903  -5.4903  -5.3600  -5.3600
     5.8629   5.8629   5.9609   5.9609   6.4258   6.4258   6.5581   6.5581
     6.7152   6.7152   6.8465   6.8465   8.0314   8.0314   8.2036   8.2036
     8.4976   8.4976   9.0608   9.0608  10.2527  10.2527  10.6195  10.6195
    11.8436  11.8436  12.2373  12.2373  12.6245  12.6245  12.8973  12.8973
    13.5675  13.5675  14.0389  14.0389  15.7732  15.7732  15.9298  15.9298
    17.5135  17.5135  18.0857  18.0857  21.5176  21.5176

     occupation numbers 
     1.0000   1.0000   1.0000   1.0000   1.0000   1.0000   1.0000   1.0000
     1.0000   1.0000   1.0000   1.0000   1.0000   1.0000   1.0000   1.0000
     1.0000   1.0000   1.0000   1.0000   1.0000   1.0000   1.0000   1.0000
     1.0000   1.0000   1.0000   1.0000   1.0000   1.0000   1.0000   1.0000
     1.0000   1.0000   1.0000   1.0000   1.0000   1.0000   1.0000   1.0000
     1.0000   1.0000   1.0000   1.0000   1.0000   1.0000   1.0000   1.0000
     1.0000   1.0000   1.0000   1.0000   1.0000   1.0000   1.0000   1.0000
     1.0000   1.0000  -0.0042  -0.0042  -0.0000  -0.0000  -0.0000  -0.0000
    -0.0000  -0.0000  -0.0000  -0.0000  -0.0000  -0.0000

          k = 0.0000 0.4286 0.5343 (  5376 PWs)   bands (ev):

   -79.3834 -79.3834 -79.3833 -79.3833 -46.2336 -46.2336 -46.2316 -46.2316
   -32.8166 -32.8166 -32.7879 -32.7879 -32.6471 -32.6471 -32.6279 -32.6279
    -5.8629  -5.8629  -5.7479  -5.7479  -5.4519  -5.4519  -5.3041  -5.3041
     5.7414   5.7414   5.8054   5.8054   6.1036   6.1036   6.2237   6.2237
     7.1344   7.1344   7.4995   7.4995   8.2181   8.2181   8.6624   8.6624
     8.9256   8.9256   9.0632   9.0632   9.9560   9.9560  10.6331  10.6331
    11.2679  11.2679  11.8473  11.8473  12.2070  12.2070  12.5345  12.5345
    13.9781  13.9781  14.3678  14.3678  15.1883  15.1883  15.3027  15.3027
    17.9439  17.9439  18.2662  18.2662  22.4113  22.4113

     occupation numbers 
     1.0000   1.0000   1.0000   1.0000   1.0000   1.0000   1.0000   1.0000
     1.0000   1.0000   1.0000   1.0000   1.0000   1.0000   1.0000   1.0000
     1.0000   1.0000   1.0000   1.0000   1.0000   1.0000   1.0000   1.0000
     1.0000   1.0000   1.0000   1.0000   1.0000   1.0000   1.0000   1.0000
     1.0000   1.0000   1.0000   1.0000   1.0000   1.0000   1.0000   1.0000
     1.0000   1.0000   1.0000   1.0000   1.0000   1.0000   1.0000   1.0000
     1.0000   1.0000   1.0000   1.0000   1.0000   1.0000   1.0000   1.0000
    -0.0348  -0.0348  -0.0000  -0.0000  -0.0000  -0.0000  -0.0000  -0.0000
    -0.0000  -0.0000  -0.0000  -0.0000  -0.0000  -0.0000

          k = 0.0000 0.4286-0.7124 (  5356 PWs)   bands (ev):

   -79.3830 -79.3830 -79.3830 -79.3830 -46.2352 -46.2352 -46.2333 -46.2333
   -32.8271 -32.8271 -32.7967 -32.7967 -32.6479 -32.6479 -32.6282 -32.6282
    -5.8198  -5.8198  -5.8188  -5.8188  -5.3708  -5.3708  -5.2107  -5.2107
     5.4680   5.4680   5.5151   5.5151   6.1946   6.1946   6.2109   6.2109
     7.5529   7.5529   8.0469   8.0469   8.4070   8.4070   8.5332   8.5332
     8.9731   8.9731   9.0217   9.0217  10.3296  10.3296  10.3609  10.3609
    11.2897  11.2897  11.3152  11.3152  11.9017  11.9017  12.2482  12.2482
    14.1551  14.1551  14.5014  14.5014  15.0446  15.0446  15.0900  15.0900
    18.1649  18.1649  18.3382  18.3382  23.1090  23.1104

     occupation numbers 
     1.0000   1.0000   1.0000   1.0000   1.0000   1.0000   1.0000   1.0000
     1.0000   1.0000   1.0000   1.0000   1.0000   1.0000   1.0000   1.0000
     1.0000   1.0000   1.0000   1.0000   1.0000   1.0000   1.0000   1.0000
     1.0000   1.0000   1.0000   1.0000   1.0000   1.0000   1.0000   1.0000
     1.0000   1.0000   1.0000   1.0000   1.0000   1.0000   1.0000   1.0000
     1.0000   1.0000   1.0000   1.0000   1.0000   1.0000   1.0000   1.0000
     1.0000   1.0000   1.0000   1.0000   1.0000   1.0000   1.0000   1.0000
    -0.0000  -0.0000  -0.0000  -0.0000  -0.0000  -0.0000  -0.0000  -0.0000
    -0.0000  -0.0000  -0.0000  -0.0000  -0.0000  -0.0000

          k = 0.1429 0.1429 0.0000 (  5363 PWs)   bands (ev):

   -79.3859 -79.3859 -79.3848 -79.3848 -46.2274 -46.2274 -46.2187 -46.2187
   -32.7642 -32.7642 -32.7536 -32.7536 -32.6252 -32.6252 -32.6152 -32.6152
    -6.9279  -6.9279  -5.9043  -5.9043  -5.1540  -5.1540  -4.8951  -4.8951
     4.3894   4.3894   5.0357   5.0357   6.0615   6.0615   6.1934   6.1934
     6.5098   6.5098   8.0765   8.0765   8.6610   8.6610   9.0236   9.0236
     9.8677   9.8677  10.3008  10.3008  10.4736  10.4736  11.1538  11.1538
    11.4566  11.4566  11.6160  11.6160  11.9608  11.9608  12.1335  12.1335
    12.5367  12.5367  14.7989  14.7989  15.1459  15.1459  17.4950  17.4950
    17.9227  17.9227  18.6280  18.6280  19.0731  19.0731

     occupation numbers 
     1.0000   1.0000   1.0000   1.0000   1.0000   1.0000   1.0000   1.0000
     1.0000   1.0000   1.0000   1.0000   1.0000   1.0000   1.0000   1.0000
     1.0000   1.0000   1.0000   1.0000   1.0000   1.0000   1.0000   1.0000
     1.0000   1.0000   1.0000   1.0000   1.0000   1.0000   1.0000   1.0000
     1.0000   1.0000   1.0000   1.0000   1.0000   1.0000   1.0000   1.0000
     1.0000   1.0000   1.0000   1.0000   1.0000   1.0000   1.0000   1.0000
     1.0000   1.0000   1.0000   1.0000   1.0000   1.0000   1.0000   1.0000
     1.0000   1.0000  -0.0000  -0.0000  -0.0000  -0.0000  -0.0000  -0.0000
    -0.0000  -0.0000  -0.0000  -0.0000  -0.0000  -0.0000

          k = 0.1429 0.1429 0.1781 (  5369 PWs)   bands (ev):

   -79.3855 -79.3855 -79.3845 -79.3845 -46.2287 -46.2287 -46.2207 -46.2207
   -32.7694 -32.7694 -32.7599 -32.7599 -32.6318 -32.6318 -32.6180 -32.6180
    -6.7929  -6.7929  -5.8214  -5.8214  -5.2167  -5.2167  -4.9755  -4.9755
     4.5660   4.5660   5.1759   5.1759   6.1151   6.1151   6.2850   6.2850
     6.7147   6.7147   7.9817   7.9817   8.3265   8.3265   9.0232   9.0232
     9.1747   9.1747  10.0519  10.0519  10.3228  10.3228  11.1585  11.1585
    11.4987  11.4987  11.7418  11.7418  12.1791  12.1791  12.4781  12.4781
    12.8178  12.8178  14.6672  14.6672  15.4270  15.4270  16.9986  16.9986
    17.5296  17.5296  18.8525  18.8525  19.1233  19.1233

     occupation numbers 
     1.0000   1.0000   1.0000   1.0000   1.0000   1.0000   1.0000   1.0000
     1.0000   1.0000   1.0000   1.0000   1.0000   1.0000   1.0000   1.0000
     1.0000   1.0000   1.0000   1.0000   1.0000   1.0000   1.0000   1.0000
     1.0000   1.0000   1.0000   1.0000   1.0000   1.0000   1.0000   1.0000
     1.0000   1.0000   1.0000   1.0000   1.0000   1.0000   1.0000   1.0000
     1.0000   1.0000   1.0000   1.0000   1.0000   1.0000   1.0000   1.0000
     1.0000   1.0000   1.0000   1.0000   1.0000   1.0000   1.0000   1.0000
     1.0000   1.0000  -0.0000  -0.0000  -0.0000  -0.0000  -0.0000  -0.0000
    -0.0000  -0.0000  -0.0000  -0.0000  -0.0000  -0.0000

          k = 0.1429 0.1429 0.3562 (  5387 PWs)   bands (ev):

   -79.3846 -79.3846 -79.3838 -79.3838 -46.2318 -46.2318 -46.2256 -46.2256
   -32.7882 -32.7882 -32.7750 -32.7750 -32.6422 -32.6422 -32.6240 -32.6240
    -6.4424  -6.4424  -5.6518  -5.6518  -5.3453  -5.3453  -5.1609  -5.1609
     5.0342   5.0342   5.5052   5.5052   6.2983   6.2983   6.5980   6.5980
     7.0100   7.0100   7.2453   7.2453   7.8964   7.8964   8.6805   8.6805
     9.1540   9.1540   9.5836   9.5836   9.7817   9.7817  10.9231  10.9231
    11.4774  11.4774  11.9942  11.9942  12.4600  12.4600  12.9760  12.9760
    13.3789  13.3789  14.3615  14.3615  15.8963  15.8963  16.2829  16.2829
    16.8712  16.8712  18.3058  18.3058  20.2381  20.2381

     occupation numbers 
     1.0000   1.0000   1.0000   1.0000   1.0000   1.0000   1.0000   1.0000
     1.0000   1.0000   1.0000   1.0000   1.0000   1.0000   1.0000   1.0000
     1.0000   1.0000   1.0000   1.0000   1.0000   1.0000   1.0000   1.0000
     1.0000   1.0000   1.0000   1.0000   1.0000   1.0000   1.0000   1.0000
     1.0000   1.0000   1.0000   1.0000   1.0000   1.0000   1.0000   1.0000
     1.0000   1.0000   1.0000   1.0000   1.0000   1.0000   1.0000   1.0000
     1.0000   1.0000   1.0000   1.0000   1.0000   1.0000   1.0000   1.0000
     1.0000   1.0000  -0.0000  -0.0000  -0.0000  -0.0000  -0.0000  -0.0000
    -0.0000  -0.0000  -0.0000  -0.0000  -0.0000  -0.0000

          k = 0.1429 0.1429 0.5343 (  5370 PWs)   bands (ev):

   -79.3836 -79.3836 -79.3832 -79.3832 -46.2344 -46.2344 -46.2309 -46.2309
   -32.8106 -32.8106 -32.7939 -32.7939 -32.6451 -32.6451 -32.6296 -32.6296
    -6.0325  -6.0325  -5.6319  -5.6319  -5.3948  -5.3948  -5.2972  -5.2972
     5.5592   5.5592   5.8100   5.8100   6.1036   6.1036   6.6070   6.6070
     6.9922   6.9922   7.4263   7.4263   7.9572   7.9572   8.5319   8.5319
     8.7852   8.7852   9.4102   9.4102   9.7378   9.7378  10.0993  10.0993
    11.8244  11.8244  12.0838  12.0838  12.2512  12.2512  13.3362  13.3362
    13.5926  13.5926  14.3389  14.3389  15.4476  15.4476  16.2267  16.2267
    16.7210  16.7210  17.8176  17.8176  21.6262  21.6262

     occupation numbers 
     1.0000   1.0000   1.0000   1.0000   1.0000   1.0000   1.0000   1.0000
     1.0000   1.0000   1.0000   1.0000   1.0000   1.0000   1.0000   1.0000
     1.0000   1.0000   1.0000   1.0000   1.0000   1.0000   1.0000   1.0000
     1.0000   1.0000   1.0000   1.0000   1.0000   1.0000   1.0000   1.0000
     1.0000   1.0000   1.0000   1.0000   1.0000   1.0000   1.0000   1.0000
     1.0000   1.0000   1.0000   1.0000   1.0000   1.0000   1.0000   1.0000
     1.0000   1.0000   1.0000   1.0000   1.0000   1.0000   1.0000   1.0000
     1.0000   1.0000  -0.0000  -0.0000  -0.0000  -0.0000  -0.0000  -0.0000
    -0.0000  -0.0000  -0.0000  -0.0000  -0.0000  -0.0000

          k = 0.1429 0.1429-0.7124 (  5368 PWs)   bands (ev):

   -79.3831 -79.3831 -79.3831 -79.3831 -46.2348 -46.2348 -46.2337 -46.2337
   -32.8203 -32.8203 -32.8030 -32.8030 -32.6437 -32.6437 -32.6325 -32.6325
    -5.8035  -5.8035  -5.7045  -5.7045  -5.4431  -5.4431  -5.2928  -5.2928
     5.6371   5.6371   5.8828   5.8828   6.1077   6.1077   6.5703   6.5703
     6.8045   6.8045   8.0755   8.0755   8.2462   8.2462   8.3011   8.3011
     8.7302   8.7302   9.1334   9.1334   9.4527   9.4527   9.9859   9.9859
    11.8777  11.8777  11.9023  11.9023  12.4652  12.4652  13.0293  13.0293
    13.7995  13.7995  14.4790  14.4790  15.2212  15.2212  16.1121  16.1121
    16.7732  16.7732  17.6915  17.6915  22.9126  22.9142

     occupation numbers 
     1.0000   1.0000   1.0000   1.0000   1.0000   1.0000   1.0000   1.0000
     1.0000   1.0000   1.0000   1.0000   1.0000   1.0000   1.0000   1.0000
     1.0000   1.0000   1.0000   1.0000   1.0000   1.0000   1.0000   1.0000
     1.0000   1.0000   1.0000   1.0000   1.0000   1.0000   1.0000   1.0000
     1.0000   1.0000   1.0000   1.0000   1.0000   1.0000   1.0000   1.0000
     1.0000   1.0000   1.0000   1.0000   1.0000   1.0000   1.0000   1.0000
     1.0000   1.0000   1.0000   1.0000   1.0000   1.0000   1.0000   1.0000
     1.0339   1.0339  -0.0000  -0.0000  -0.0000  -0.0000  -0.0000  -0.0000
    -0.0000  -0.0000  -0.0000  -0.0000  -0.0000  -0.0000

          k = 0.1429 0.2857 0.0000 (  5373 PWs)   bands (ev):

   -79.3857 -79.3857 -79.3850 -79.3850 -46.2261 -46.2261 -46.2201 -46.2201
   -32.7618 -32.7618 -32.7542 -32.7542 -32.6249 -32.6249 -32.6177 -32.6177
    -6.7381  -6.7381  -5.9529  -5.9529  -5.2844  -5.2844  -4.9898  -4.9898
     4.5677   4.5677   5.5542   5.5542   6.0853   6.0853   6.2397   6.2397
     6.8742   6.8742   7.4120   7.4120   8.5804   8.5804   8.7096   8.7096
     9.5120   9.5120   9.6369   9.6369  10.2863  10.2863  11.1755  11.1755
    11.4819  11.4819  11.8318  11.8318  12.1557  12.1557  12.4683  12.4683
    12.9491  12.9491  14.4651  14.4651  15.7401  15.7401  17.3407  17.3407
    17.7787  17.7787  18.5243  18.5243  19.5192  19.5192

     occupation numbers 
     1.0000   1.0000   1.0000   1.0000   1.0000   1.0000   1.0000   1.0000
     1.0000   1.0000   1.0000   1.0000   1.0000   1.0000   1.0000   1.0000
     1.0000   1.0000   1.0000   1.0000   1.0000   1.0000   1.0000   1.0000
     1.0000   1.0000   1.0000   1.0000   1.0000   1.0000   1.0000   1.0000
     1.0000   1.0000   1.0000   1.0000   1.0000   1.0000   1.0000   1.0000
     1.0000   1.0000   1.0000   1.0000   1.0000   1.0000   1.0000   1.0000
     1.0000   1.0000   1.0000   1.0000   1.0000   1.0000   1.0000   1.0000
     1.0000   1.0000  -0.0000  -0.0000  -0.0000  -0.0000  -0.0000  -0.0000
    -0.0000  -0.0000  -0.0000  -0.0000  -0.0000  -0.0000

          k = 0.1429 0.2857 0.1781 (  5379 PWs)   bands (ev):

   -79.3854 -79.3854 -79.3847 -79.3847 -46.2275 -46.2275 -46.2219 -46.2219
   -32.7693 -32.7693 -32.7586 -32.7586 -32.6315 -32.6315 -32.6203 -32.6203
    -6.6112  -6.6112  -5.8540  -5.8540  -5.3493  -5.3493  -5.0626  -5.0626
     4.7301   4.7301   5.7017   5.7017   6.1167   6.1167   6.2427   6.2427
     7.0770   7.0770   7.6633   7.6633   7.9343   7.9343   8.5879   8.5879
     9.0364   9.0364   9.7146   9.7146  10.2653  10.2653  10.9305  10.9305
    11.6964  11.6964  11.9356  11.9356  12.2977  12.2977  12.7099  12.7099
    13.1054  13.1054  14.3495  14.3495  15.9490  15.9490  16.7981  16.7981
    17.4034  17.4034  18.4606  18.4606  19.9341  19.9341

     occupation numbers 
     1.0000   1.0000   1.0000   1.0000   1.0000   1.0000   1.0000   1.0000
     1.0000   1.0000   1.0000   1.0000   1.0000   1.0000   1.0000   1.0000
     1.0000   1.0000   1.0000   1.0000   1.0000   1.0000   1.0000   1.0000
     1.0000   1.0000   1.0000   1.0000   1.0000   1.0000   1.0000   1.0000
     1.0000   1.0000   1.0000   1.0000   1.0000   1.0000   1.0000   1.0000
     1.0000   1.0000   1.0000   1.0000   1.0000   1.0000   1.0000   1.0000
     1.0000   1.0000   1.0000   1.0000   1.0000   1.0000   1.0000   1.0000
     1.0000   1.0000  -0.0000  -0.0000  -0.0000  -0.0000  -0.0000  -0.0000
    -0.0000  -0.0000  -0.0000  -0.0000  -0.0000  -0.0000

          k = 0.1429 0.2857 0.3562 (  5377 PWs)   bands (ev):

   -79.3845 -79.3845 -79.3839 -79.3839 -46.2309 -46.2309 -46.2265 -46.2265
   -32.7902 -32.7902 -32.7723 -32.7723 -32.6418 -32.6418 -32.6255 -32.6255
    -6.2905  -6.2905  -5.6317  -5.6317  -5.4900  -5.4900  -5.2257  -5.2257
     5.1523   5.1523   5.9148   5.9148   6.2509   6.2509   6.5893   6.5893
     6.7506   6.7506   7.5721   7.5721   7.7239   7.7239   8.2506   8.2506
     9.1790   9.1790   9.3288   9.3288   9.9271   9.9271  10.9202  10.9202
    11.4504  11.4504  12.1364  12.1364  12.5467  12.5467  12.9291  12.9291
    13.4782  13.4782  14.1625  14.1625  15.8054  15.8054  16.3259  16.3259
    16.9257  16.9257  18.2791  18.2791  20.8332  20.8332

     occupation numbers 
     1.0000   1.0000   1.0000   1.0000   1.0000   1.0000   1.0000   1.0000
     1.0000   1.0000   1.0000   1.0000   1.0000   1.0000   1.0000   1.0000
     1.0000   1.0000   1.0000   1.0000   1.0000   1.0000   1.0000   1.0000
     1.0000   1.0000   1.0000   1.0000   1.0000   1.0000   1.0000   1.0000
     1.0000   1.0000   1.0000   1.0000   1.0000   1.0000   1.0000   1.0000
     1.0000   1.0000   1.0000   1.0000   1.0000   1.0000   1.0000   1.0000
     1.0000   1.0000   1.0000   1.0000   1.0000   1.0000   1.0000   1.0000
     1.0000   1.0000  -0.0000  -0.0000  -0.0000  -0.0000  -0.0000  -0.0000
    -0.0000  -0.0000  -0.0000  -0.0000  -0.0000  -0.0000

          k = 0.1429 0.2857 0.5343 (  5367 PWs)   bands (ev):

   -79.3835 -79.3835 -79.3832 -79.3832 -46.2340 -46.2340 -46.2313 -46.2313
   -32.8135 -32.8135 -32.7911 -32.7911 -32.6458 -32.6458 -32.6292 -32.6292
    -5.9532  -5.9532  -5.6669  -5.6669  -5.4316  -5.4316  -5.3062  -5.3062
     5.6251   5.6251   5.8224   5.8224   6.0766   6.0766   6.3798   6.3798
     6.9047   6.9047   7.5577   7.5577   8.1866   8.1866   8.6238   8.6238
     8.8217   8.8217   9.3395   9.3395   9.6761   9.6761  10.5305  10.5305
    11.4930  11.4930  12.0564  12.0564  12.2693  12.2693  12.8968  12.8968
    13.6851  13.6851  14.3616  14.3616  15.2002  15.2002  15.9366  15.9366
    17.1978  17.1978  18.1306  18.1306  21.9382  21.9382

     occupation numbers 
     1.0000   1.0000   1.0000   1.0000   1.0000   1.0000   1.0000   1.0000
     1.0000   1.0000   1.0000   1.0000   1.0000   1.0000   1.0000   1.0000
     1.0000   1.0000   1.0000   1.0000   1.0000   1.0000   1.0000   1.0000
     1.0000   1.0000   1.0000   1.0000   1.0000   1.0000   1.0000   1.0000
     1.0000   1.0000   1.0000   1.0000   1.0000   1.0000   1.0000   1.0000
     1.0000   1.0000   1.0000   1.0000   1.0000   1.0000   1.0000   1.0000
     1.0000   1.0000   1.0000   1.0000   1.0000   1.0000   1.0000   1.0000
     1.0001   1.0001  -0.0000  -0.0000  -0.0000  -0.0000  -0.0000  -0.0000
    -0.0000  -0.0000  -0.0000  -0.0000  -0.0000  -0.0000

          k = 0.1429 0.2857-0.7124 (  5360 PWs)   bands (ev):

   -79.3831 -79.3831 -79.3830 -79.3830 -46.2350 -46.2350 -46.2335 -46.2335
   -32.8235 -32.8235 -32.8000 -32.8000 -32.6458 -32.6458 -32.6305 -32.6305
    -5.8278  -5.8278  -5.7182  -5.7182  -5.4322  -5.4322  -5.2511  -5.2511
     5.5207   5.5207   5.8710   5.8710   6.0635   6.0635   6.2436   6.2436
     7.0035   7.0035   8.0032   8.0032   8.3118   8.3118   8.6905   8.6905
     8.9009   8.9009   9.3483   9.3483   9.5399   9.5399  10.0921  10.0921
    11.7017  11.7017  11.8866  11.8866  12.1119  12.1119  12.6526  12.6526
    13.8225  13.8225  14.5187  14.5187  15.0084  15.0084  15.7449  15.7449
    17.3256  17.3256  18.1138  18.1138  22.9574  22.9574

     occupation numbers 
     1.0000   1.0000   1.0000   1.0000   1.0000   1.0000   1.0000   1.0000
     1.0000   1.0000   1.0000   1.0000   1.0000   1.0000   1.0000   1.0000
     1.0000   1.0000   1.0000   1.0000   1.0000   1.0000   1.0000   1.0000
     1.0000   1.0000   1.0000   1.0000   1.0000   1.0000   1.0000   1.0000
     1.0000   1.0000   1.0000   1.0000   1.0000   1.0000   1.0000   1.0000
     1.0000   1.0000   1.0000   1.0000   1.0000   1.0000   1.0000   1.0000
     1.0000   1.0000   1.0000   1.0000   1.0000   1.0000   1.0000   1.0000
     1.0246   1.0246  -0.0000  -0.0000  -0.0000  -0.0000  -0.0000  -0.0000
    -0.0000  -0.0000  -0.0000  -0.0000  -0.0000  -0.0000

          k = 0.1429 0.4286 0.0000 (  5380 PWs)   bands (ev):

   -79.3855 -79.3855 -79.3852 -79.3852 -46.2242 -46.2242 -46.2220 -46.2220
   -32.7587 -32.7587 -32.7559 -32.7559 -32.6236 -32.6236 -32.6209 -32.6209
    -6.4596  -6.4596  -6.1590  -6.1590  -5.2729  -5.2729  -5.1403  -5.1403
     5.0141   5.0141   5.5321   5.5321   6.1432   6.1432   6.2186   6.2186
     7.3247   7.3247   7.5587   7.5587   8.0832   8.0832   8.5908   8.5908
     8.7986   8.7986   9.0900   9.0900  10.4579  10.4579  10.8050  10.8050
    11.8913  11.8913  12.0747  12.0747  12.2480  12.2480  12.4877  12.4877
    13.4565  13.4565  13.9922  13.9922  16.6264  16.6264  17.3392  17.3392
    17.4849  17.4849  17.7880  17.7880  20.5453  20.5453

     occupation numbers 
     1.0000   1.0000   1.0000   1.0000   1.0000   1.0000   1.0000   1.0000
     1.0000   1.0000   1.0000   1.0000   1.0000   1.0000   1.0000   1.0000
     1.0000   1.0000   1.0000   1.0000   1.0000   1.0000   1.0000   1.0000
     1.0000   1.0000   1.0000   1.0000   1.0000   1.0000   1.0000   1.0000
     1.0000   1.0000   1.0000   1.0000   1.0000   1.0000   1.0000   1.0000
     1.0000   1.0000   1.0000   1.0000   1.0000   1.0000   1.0000   1.0000
     1.0000   1.0000   1.0000   1.0000   1.0000   1.0000   1.0000   1.0000
     1.0000   1.0000  -0.0277  -0.0277  -0.0000  -0.0000  -0.0000  -0.0000
    -0.0000  -0.0000  -0.0000  -0.0000  -0.0000  -0.0000

          k = 0.1429 0.4286 0.1781 (  5378 PWs)   bands (ev):

   -79.3851 -79.3851 -79.3849 -79.3849 -46.2258 -46.2258 -46.2237 -46.2237
   -32.7691 -32.7691 -32.7576 -32.7576 -32.6308 -32.6308 -32.6225 -32.6225
    -6.3443  -6.3443  -6.0518  -6.0518  -5.3348  -5.3348  -5.2025  -5.2025
     5.1582   5.1582   5.6982   5.6982   6.1548   6.1548   6.1889   6.1889
     7.5007   7.5007   7.7365   7.7365   7.8963   7.8963   8.3288   8.3288
     8.4691   8.4691   8.9808   8.9808  10.4682  10.4682  10.7299  10.7299
    11.9468  11.9468  12.0572  12.0572  12.5052  12.5052  12.7574  12.7574
    13.4372  13.4372  13.9222  13.9222  16.5584  16.5584  16.8585  16.8585
    17.2559  17.2559  17.8081  17.8081  20.9157  20.9157

     occupation numbers 
     1.0000   1.0000   1.0000   1.0000   1.0000   1.0000   1.0000   1.0000
     1.0000   1.0000   1.0000   1.0000   1.0000   1.0000   1.0000   1.0000
     1.0000   1.0000   1.0000   1.0000   1.0000   1.0000   1.0000   1.0000
     1.0000   1.0000   1.0000   1.0000   1.0000   1.0000   1.0000   1.0000
     1.0000   1.0000   1.0000   1.0000   1.0000   1.0000   1.0000   1.0000
     1.0000   1.0000   1.0000   1.0000   1.0000   1.0000   1.0000   1.0000
     1.0000   1.0000   1.0000   1.0000   1.0000   1.0000   1.0000   1.0000
     1.0000   1.0000   0.1465   0.1465  -0.0000  -0.0000  -0.0000  -0.0000
    -0.0000  -0.0000  -0.0000  -0.0000  -0.0000  -0.0000

          k = 0.1429 0.4286 0.3562 (  5377 PWs)   bands (ev):

   -79.3843 -79.3843 -79.3841 -79.3841 -46.2297 -46.2297 -46.2277 -46.2277
   -32.7915 -32.7915 -32.7706 -32.7706 -32.6413 -32.6413 -32.6267 -32.6267
    -6.0673  -6.0673  -5.8136  -5.8136  -5.4598  -5.4598  -5.3272  -5.3272
     5.4870   5.4870   5.9118   5.9118   6.3011   6.3011   6.4540   6.4540
     6.7982   6.7982   7.2111   7.2111   8.1231   8.1231   8.4427   8.4427
     8.7054   8.7054   9.0721   9.0721  10.1237  10.1237  10.4885  10.4885
    11.9052  11.9052  12.2291  12.2291  12.5595  12.5595  12.8421  12.8421
    13.5493  13.5493  13.9673  13.9673  15.8334  15.8334  16.1281  16.1281
    17.4001  17.4001  17.9511  17.9511  21.6563  21.6563

     occupation numbers 
     1.0000   1.0000   1.0000   1.0000   1.0000   1.0000   1.0000   1.0000
     1.0000   1.0000   1.0000   1.0000   1.0000   1.0000   1.0000   1.0000
     1.0000   1.0000   1.0000   1.0000   1.0000   1.0000   1.0000   1.0000
     1.0000   1.0000   1.0000   1.0000   1.0000   1.0000   1.0000   1.0000
     1.0000   1.0000   1.0000   1.0000   1.0000   1.0000   1.0000   1.0000
     1.0000   1.0000   1.0000   1.0000   1.0000   1.0000   1.0000   1.0000
     1.0000   1.0000   1.0000   1.0000   1.0000   1.0000   1.0000   1.0000
     1.0000   1.0000  -0.0340  -0.0340  -0.0000  -0.0000  -0.0000  -0.0000
    -0.0000  -0.0000  -0.0000  -0.0000  -0.0000  -0.0000

          k = 0.1429 0.4286 0.5343 (  5370 PWs)   bands (ev):

   -79.3834 -79.3834 -79.3833 -79.3833 -46.2335 -46.2335 -46.2317 -46.2317
   -32.8153 -32.8153 -32.7893 -32.7893 -32.6462 -32.6462 -32.6289 -32.6289
    -5.8457  -5.8457  -5.7405  -5.7405  -5.4562  -5.4562  -5.3168  -5.3168
     5.6887   5.6887   5.7610   5.7610   6.1235   6.1235   6.2215   6.2215
     7.0421   7.0421   7.3960   7.3960   8.3394   8.3394   8.6087   8.6087
     8.9798   8.9798   9.1909   9.1909  10.0079  10.0079  10.6225  10.6225
    11.3982  11.3982  11.9458  11.9458  12.1934  12.1934  12.5295  12.5295
    13.8573  13.8573  14.2832  14.2832  15.2319  15.2319  15.5241  15.5241
    17.7699  17.7699  18.1487  18.1487  22.4597  22.4597

     occupation numbers 
     1.0000   1.0000   1.0000   1.0000   1.0000   1.0000   1.0000   1.0000
     1.0000   1.0000   1.0000   1.0000   1.0000   1.0000   1.0000   1.0000
     1.0000   1.0000   1.0000   1.0000   1.0000   1.0000   1.0000   1.0000
     1.0000   1.0000   1.0000   1.0000   1.0000   1.0000   1.0000   1.0000
     1.0000   1.0000   1.0000   1.0000   1.0000   1.0000   1.0000   1.0000
     1.0000   1.0000   1.0000   1.0000   1.0000   1.0000   1.0000   1.0000
     1.0000   1.0000   1.0000   1.0000   1.0000   1.0000   1.0000   1.0000
     0.8608   0.8608  -0.0000  -0.0000  -0.0000  -0.0000  -0.0000  -0.0000
    -0.0000  -0.0000  -0.0000  -0.0000  -0.0000  -0.0000

          k = 0.1429 0.4286-0.7124 (  5350 PWs)   bands (ev):

   -79.3830 -79.3830 -79.3830 -79.3830 -46.2351 -46.2351 -46.2334 -46.2334
   -32.8256 -32.8256 -32.7981 -32.7981 -32.6471 -32.6471 -32.6292 -32.6292
    -5.8162  -5.8162  -5.7718  -5.7718  -5.3947  -5.3947  -5.2344  -5.2344
     5.4776   5.4776   5.6157   5.6157   6.1133   6.1133   6.2074   6.2074
     7.3673   7.3673   7.8372   7.8372   8.3223   8.3223   8.4556   8.4556
     9.0362   9.0362   9.3806   9.3806  10.1932  10.1932  10.6264  10.6264
    11.2142  11.2142  11.6316  11.6316  11.9188  11.9188  12.2832  12.2832
    14.0142  14.0142  14.4303  14.4303  15.0493  15.0493  15.3115  15.3115
    17.9270  17.9270  18.2499  18.2499  23.1062  23.1062

     occupation numbers 
     1.0000   1.0000   1.0000   1.0000   1.0000   1.0000   1.0000   1.0000
     1.0000   1.0000   1.0000   1.0000   1.0000   1.0000   1.0000   1.0000
     1.0000   1.0000   1.0000   1.0000   1.0000   1.0000   1.0000   1.0000
     1.0000   1.0000   1.0000   1.0000   1.0000   1.0000   1.0000   1.0000
     1.0000   1.0000   1.0000   1.0000   1.0000   1.0000   1.0000   1.0000
     1.0000   1.0000   1.0000   1.0000   1.0000   1.0000   1.0000   1.0000
     1.0000   1.0000   1.0000   1.0000   1.0000   1.0000   1.0000   1.0000
    -0.0135  -0.0135  -0.0000  -0.0000  -0.0000  -0.0000  -0.0000  -0.0000
    -0.0000  -0.0000  -0.0000  -0.0000  -0.0000  -0.0000

          k = 0.2857 0.2857 0.0000 (  5393 PWs)   bands (ev):

   -79.3856 -79.3856 -79.3851 -79.3851 -46.2252 -46.2252 -46.2210 -46.2210
   -32.7611 -32.7611 -32.7553 -32.7553 -32.6241 -32.6241 -32.6186 -32.6186
    -6.6292  -6.6292  -6.0677  -6.0677  -5.2873  -5.2873  -4.9776  -4.9776
[...]
     1.0000   1.0000   1.0000   1.0000   1.0000   1.0000   1.0000   1.0000
     1.0000   1.0000   1.0324   1.0324  -0.0000  -0.0000  -0.0000  -0.0000
    -0.0000  -0.0000  -0.0000  -0.0000  -0.0000  -0.0000

          k = 0.2857 0.4286 0.5343 (  5360 PWs)   bands (ev):

   -79.3834 -79.3834 -79.3834 -79.3834 -46.2333 -46.2333 -46.2320 -46.2320
   -32.8117 -32.8117 -32.7931 -32.7931 -32.6439 -32.6439 -32.6314 -32.6314
    -5.8027  -5.8027  -5.7258  -5.7258  -5.4619  -5.4619  -5.3515  -5.3515
     5.5713   5.5713   5.6688   5.6688   6.1076   6.1076   6.2622   6.2622
     6.8926   6.8926   7.2543   7.2543   8.4044   8.4044   8.5490   8.5490
     9.1720   9.1720   9.4441   9.4441  10.1075  10.1075  10.5887  10.5887
    11.7472  11.7472  12.0258  12.0258  12.2379  12.2379  12.6416  12.6416
    13.5346  13.5346  14.0330  14.0330  15.5059  15.5059  15.9440  15.9440
    17.3604  17.3604  17.8130  17.8130  22.5937  22.5938

     occupation numbers 
     1.0000   1.0000   1.0000   1.0000   1.0000   1.0000   1.0000   1.0000
     1.0000   1.0000   1.0000   1.0000   1.0000   1.0000   1.0000   1.0000
     1.0000   1.0000   1.0000   1.0000   1.0000   1.0000   1.0000   1.0000
     1.0000   1.0000   1.0000   1.0000   1.0000   1.0000   1.0000   1.0000
     1.0000   1.0000   1.0000   1.0000   1.0000   1.0000   1.0000   1.0000
     1.0000   1.0000   1.0000   1.0000   1.0000   1.0000   1.0000   1.0000
     1.0000   1.0000   1.0000   1.0000   1.0000   1.0000   1.0000   1.0000
     1.0000   1.0000  -0.0057  -0.0057  -0.0000  -0.0000  -0.0000  -0.0000
    -0.0000  -0.0000  -0.0000  -0.0000  -0.0000  -0.0000

          k = 0.2857 0.4286-0.7124 (  5368 PWs)   bands (ev):

   -79.3830 -79.3830 -79.3830 -79.3830 -46.2349 -46.2349 -46.2337 -46.2337
   -32.8217 -32.8217 -32.8020 -32.8020 -32.6448 -32.6448 -32.6320 -32.6320
    -5.7665  -5.7665  -5.6846  -5.6846  -5.4579  -5.4579  -5.3018  -5.3018
     5.5630   5.5630   5.7946   5.7946   5.9999   5.9999   6.2089   6.2089
     6.8986   6.8986   7.4980   7.4980   8.1996   8.1996   8.3344   8.3344
     9.4103   9.4103   9.6137   9.6137  10.3000  10.3000  10.7351  10.7351
    11.5424  11.5424  11.8999  11.8999  12.0252  12.0252  12.4668  12.4668
    13.6502  13.6502  14.1752  14.1752  15.2876  15.2876  15.7473  15.7473
    17.4145  17.4145  17.9085  17.9085  23.1059  23.1060

     occupation numbers 
     1.0000   1.0000   1.0000   1.0000   1.0000   1.0000   1.0000   1.0000
     1.0000   1.0000   1.0000   1.0000   1.0000   1.0000   1.0000   1.0000
     1.0000   1.0000   1.0000   1.0000   1.0000   1.0000   1.0000   1.0000
     1.0000   1.0000   1.0000   1.0000   1.0000   1.0000   1.0000   1.0000
     1.0000   1.0000   1.0000   1.0000   1.0000   1.0000   1.0000   1.0000
     1.0000   1.0000   1.0000   1.0000   1.0000   1.0000   1.0000   1.0000
     1.0000   1.0000   1.0000   1.0000   1.0000   1.0000   1.0000   1.0000
     1.0000   1.0000  -0.0000  -0.0000  -0.0000  -0.0000  -0.0000  -0.0000
    -0.0000  -0.0000  -0.0000  -0.0000  -0.0000  -0.0000

          k = 0.4286 0.4286 0.0000 (  5408 PWs)   bands (ev):

   -79.3854 -79.3854 -79.3853 -79.3853 -46.2234 -46.2234 -46.2229 -46.2229
   -32.7596 -32.7596 -32.7588 -32.7588 -32.6210 -32.6210 -32.6202 -32.6202
    -6.4336  -6.4336  -6.3631  -6.3631  -5.0799  -5.0799  -5.0265  -5.0265
     4.4027   4.4027   4.5668   4.5668   6.0165   6.0165   6.0434   6.0434
     8.2264   8.2264   8.6547   8.6547   8.7640   8.7640   9.1915   9.1915
     9.4585   9.4585   9.6023   9.6023   9.9730   9.9730  10.4245  10.4245
    11.1427  11.1427  11.4242  11.4242  11.7753  11.7753  11.9236  11.9236
    13.9605  13.9605  14.0815  14.0815  16.1854  16.1854  16.4699  16.4699
    17.8306  17.8306  17.9327  17.9327  21.9194  21.9194

     occupation numbers 
     1.0000   1.0000   1.0000   1.0000   1.0000   1.0000   1.0000   1.0000
     1.0000   1.0000   1.0000   1.0000   1.0000   1.0000   1.0000   1.0000
     1.0000   1.0000   1.0000   1.0000   1.0000   1.0000   1.0000   1.0000
     1.0000   1.0000   1.0000   1.0000   1.0000   1.0000   1.0000   1.0000
     1.0000   1.0000   1.0000   1.0000   1.0000   1.0000   1.0000   1.0000
     1.0000   1.0000   1.0000   1.0000   1.0000   1.0000   1.0000   1.0000
     1.0000   1.0000   1.0000   1.0000   1.0000   1.0000   1.0000   1.0000
    -0.0283  -0.0283  -0.0003  -0.0003  -0.0000  -0.0000  -0.0000  -0.0000
    -0.0000  -0.0000  -0.0000  -0.0000  -0.0000  -0.0000

          k = 0.4286 0.4286 0.1781 (  5403 PWs)   bands (ev):

   -79.3851 -79.3851 -79.3850 -79.3850 -46.2250 -46.2250 -46.2245 -46.2245
   -32.7669 -32.7669 -32.7630 -32.7630 -32.6267 -32.6267 -32.6240 -32.6240
    -6.3205  -6.3205  -6.2525  -6.2525  -5.1491  -5.1491  -5.0981  -5.0981
     4.5679   4.5679   4.7265   4.7265   6.0189   6.0189   6.0503   6.0503
     8.3864   8.3864   8.5822   8.5822   8.8327   8.8327   8.9370   8.9370
     9.1302   9.1302   9.4588   9.4588   9.6943   9.6943   9.9437   9.9437
    11.5259  11.5259  11.7517  11.7517  12.1378  12.1378  12.2246  12.2246
    13.8110  13.8110  13.9203  13.9203  16.3856  16.3856  16.6170  16.6170
    17.4774  17.4774  17.5883  17.5883  22.1254  22.1254

     occupation numbers 
     1.0000   1.0000   1.0000   1.0000   1.0000   1.0000   1.0000   1.0000
     1.0000   1.0000   1.0000   1.0000   1.0000   1.0000   1.0000   1.0000
     1.0000   1.0000   1.0000   1.0000   1.0000   1.0000   1.0000   1.0000
     1.0000   1.0000   1.0000   1.0000   1.0000   1.0000   1.0000   1.0000
     1.0000   1.0000   1.0000   1.0000   1.0000   1.0000   1.0000   1.0000
     1.0000   1.0000   1.0000   1.0000   1.0000   1.0000   1.0000   1.0000
     1.0000   1.0000   1.0000   1.0000   1.0000   1.0000   1.0000   1.0000
     1.0348   1.0348   0.1631   0.1631  -0.0000  -0.0000  -0.0000  -0.0000
    -0.0000  -0.0000  -0.0000  -0.0000  -0.0000  -0.0000

          k = 0.4286 0.4286 0.3562 (  5363 PWs)   bands (ev):

   -79.3842 -79.3842 -79.3842 -79.3842 -46.2290 -46.2290 -46.2284 -46.2284
   -32.7855 -32.7855 -32.7783 -32.7783 -32.6359 -32.6359 -32.6310 -32.6310
    -6.0393  -6.0393  -5.9826  -5.9826  -5.3085  -5.3085  -5.2634  -5.2634
     5.0037   5.0037   5.1336   5.1336   6.0734   6.0734   6.1177   6.1177
     7.6441   7.6441   7.8334   7.8334   8.6902   8.6902   8.9744   8.9744
     9.1649   9.1649   9.3201   9.3201   9.7025   9.7025  10.0030  10.0030
    11.8968  11.8968  12.0573  12.0573  12.5711  12.5711  12.7143  12.7143
    13.4500  13.4500  13.6000  13.6000  16.4207  16.4207  16.6322  16.6322
    17.0412  17.0412  17.2559  17.2559  22.4838  22.4841

     occupation numbers 
     1.0000   1.0000   1.0000   1.0000   1.0000   1.0000   1.0000   1.0000
     1.0000   1.0000   1.0000   1.0000   1.0000   1.0000   1.0000   1.0000
     1.0000   1.0000   1.0000   1.0000   1.0000   1.0000   1.0000   1.0000
     1.0000   1.0000   1.0000   1.0000   1.0000   1.0000   1.0000   1.0000
     1.0000   1.0000   1.0000   1.0000   1.0000   1.0000   1.0000   1.0000
     1.0000   1.0000   1.0000   1.0000   1.0000   1.0000   1.0000   1.0000
     1.0000   1.0000   1.0000   1.0000   1.0000   1.0000   1.0000   1.0000
     1.0000   1.0000   1.0000   1.0000  -0.0000  -0.0000  -0.0000  -0.0000
    -0.0000  -0.0000  -0.0000  -0.0000  -0.0000  -0.0000

          k = 0.4286 0.4286 0.5343 (  5355 PWs)   bands (ev):

   -79.3834 -79.3834 -79.3834 -79.3834 -46.2330 -46.2330 -46.2324 -46.2324
   -32.8070 -32.8070 -32.7980 -32.7980 -32.6407 -32.6407 -32.6347 -32.6347
    -5.7553  -5.7553  -5.7249  -5.7249  -5.4533  -5.4533  -5.3947  -5.3947
     5.5089   5.5089   5.5562   5.5562   6.1298   6.1298   6.2354   6.2354
     6.9167   6.9167   7.0843   7.0843   8.4288   8.4288   8.5001   8.5001
     9.3939   9.3939   9.5131   9.5131  10.3074  10.3074  10.5095  10.5095
    11.9531  11.9531  12.0083  12.0083  12.4674  12.4674  12.8868  12.8868
    13.2394  13.2394  13.6582  13.6582  15.9360  15.9360  16.2344  16.2344
    17.0581  17.0581  17.3564  17.3564  22.8374  22.8375

     occupation numbers 
     1.0000   1.0000   1.0000   1.0000   1.0000   1.0000   1.0000   1.0000
     1.0000   1.0000   1.0000   1.0000   1.0000   1.0000   1.0000   1.0000
     1.0000   1.0000   1.0000   1.0000   1.0000   1.0000   1.0000   1.0000
     1.0000   1.0000   1.0000   1.0000   1.0000   1.0000   1.0000   1.0000
     1.0000   1.0000   1.0000   1.0000   1.0000   1.0000   1.0000   1.0000
     1.0000   1.0000   1.0000   1.0000   1.0000   1.0000   1.0000   1.0000
     1.0000   1.0000   1.0000   1.0000   1.0000   1.0000   1.0000   1.0000
     1.0000   1.0000   1.0000   1.0000  -0.0000  -0.0000  -0.0000  -0.0000
    -0.0000  -0.0000  -0.0000  -0.0000  -0.0000  -0.0000

          k = 0.4286 0.4286-0.7124 (  5370 PWs)   bands (ev):

   -79.3830 -79.3830 -79.3830 -79.3830 -46.2346 -46.2346 -46.2340 -46.2340
   -32.8166 -32.8166 -32.8070 -32.8070 -32.6417 -32.6417 -32.6355 -32.6355
    -5.6876  -5.6876  -5.6117  -5.6117  -5.5106  -5.5106  -5.3957  -5.3957
     5.6782   5.6782   5.8044   5.8044   6.0430   6.0430   6.3285   6.3285
     6.6008   6.6008   6.9914   6.9914   8.2235   8.2235   8.3020   8.3020
     9.5949   9.5949   9.6683   9.6683  10.5527  10.5527  10.7161  10.7161
    11.8789  11.8789  11.9375  11.9375  12.2942  12.2942  12.6933  12.6933
    13.3766  13.3766  13.7732  13.7732  15.7349  15.7349  16.0769  16.0769
    17.0348  17.0348  17.3905  17.3905  23.0543  23.0543

     occupation numbers 
     1.0000   1.0000   1.0000   1.0000   1.0000   1.0000   1.0000   1.0000
     1.0000   1.0000   1.0000   1.0000   1.0000   1.0000   1.0000   1.0000
     1.0000   1.0000   1.0000   1.0000   1.0000   1.0000   1.0000   1.0000
     1.0000   1.0000   1.0000   1.0000   1.0000   1.0000   1.0000   1.0000
     1.0000   1.0000   1.0000   1.0000   1.0000   1.0000   1.0000   1.0000
     1.0000   1.0000   1.0000   1.0000   1.0000   1.0000   1.0000   1.0000
     1.0000   1.0000   1.0000   1.0000   1.0000   1.0000   1.0000   1.0000
     1.0000   1.0000   1.0177   1.0177  -0.0000  -0.0000  -0.0000  -0.0000
    -0.0000  -0.0000  -0.0000  -0.0000  -0.0000  -0.0000

     the Fermi energy is    13.8902 ev

!    total energy              =    -553.08013819 Ry
     estimated scf accuracy    <          1.9E-11 Ry
     smearing contrib. (-TS)   =       0.00004992 Ry
     internal energy E=F+TS    =    -553.08018811 Ry

     The total energy is F=E-TS. E is the sum of the following terms:
     one-electron contribution =    -190.91156530 Ry
     hartree contribution      =     122.73252189 Ry
     xc contribution           =     -69.91513418 Ry
     ewald contribution        =    -414.98601052 Ry

     convergence has been achieved in  10 iterations

     Forces acting on atoms (cartesian axes, Ry/au):

     atom    1 type  2   force =     0.00000000    0.00000000    0.00000000
     atom    2 type  2   force =     0.00000000    0.00000000    0.00000000
     atom    3 type  1   force =     0.00128424   -0.00128424   -0.00000000
     atom    4 type  1   force =    -0.00128424   -0.00128424    0.00000000
     atom    5 type  1   force =     0.00128424    0.00128424    0.00000000
     atom    6 type  1   force =    -0.00128424    0.00128424   -0.00000000
     The non-local contrib.  to forces
     atom    1 type  2   force =     0.00000000    0.00000000   -0.00000000
     atom    2 type  2   force =     0.00000000    0.00000000    0.00000000
     atom    3 type  1   force =    -0.05360812    0.05360812    0.00000000
     atom    4 type  1   force =     0.05360812    0.05360812    0.00000000
     atom    5 type  1   force =    -0.05360812   -0.05360812    0.00000000
     atom    6 type  1   force =     0.05360812   -0.05360812    0.00000000
     The ionic contribution  to forces
     atom    1 type  2   force =    -0.00000000   -0.00000000    0.00000000
     atom    2 type  2   force =     0.00000000    0.00000000   -0.00000000
     atom    3 type  1   force =     1.42937233   -1.42937233    0.00000000
     atom    4 type  1   force =    -1.42937233   -1.42937233   -0.00000000
     atom    5 type  1   force =     1.42937233    1.42937233   -0.00000000
     atom    6 type  1   force =    -1.42937233    1.42937233    0.00000000
     The local contribution  to forces
     atom    1 type  2   force =     0.00000000    0.00000000    0.00000000
     atom    2 type  2   force =     0.00000000    0.00000000    0.00000000
     atom    3 type  1   force =    -1.37447955    1.37447955    0.00000000
     atom    4 type  1   force =     1.37447955    1.37447955    0.00000000
     atom    5 type  1   force =    -1.37447955   -1.37447955    0.00000000
     atom    6 type  1   force =     1.37447955   -1.37447955    0.00000000
     The core correction contribution to forces
     atom    1 type  2   force =     0.00000000    0.00000000    0.00000000
     atom    2 type  2   force =     0.00000000    0.00000000    0.00000000
     atom    3 type  1   force =     0.00000000    0.00000000    0.00000000
     atom    4 type  1   force =     0.00000000    0.00000000    0.00000000
     atom    5 type  1   force =     0.00000000    0.00000000    0.00000000
     atom    6 type  1   force =     0.00000000    0.00000000    0.00000000
     The Hubbard contrib.    to forces
     atom    1 type  2   force =     0.00000000    0.00000000    0.00000000
     atom    2 type  2   force =     0.00000000    0.00000000    0.00000000
     atom    3 type  1   force =     0.00000000    0.00000000    0.00000000
     atom    4 type  1   force =     0.00000000    0.00000000    0.00000000
     atom    5 type  1   force =     0.00000000    0.00000000    0.00000000
     atom    6 type  1   force =     0.00000000    0.00000000    0.00000000
     The SCF correction term to forces
     atom    1 type  2   force =    -0.00000000   -0.00000000    0.00000000
     atom    2 type  2   force =    -0.00000000    0.00000000   -0.00000000
     atom    3 type  1   force =    -0.00000042    0.00000042    0.00000000
     atom    4 type  1   force =     0.00000042    0.00000042   -0.00000000
     atom    5 type  1   force =    -0.00000042   -0.00000042   -0.00000000
     atom    6 type  1   force =     0.00000042   -0.00000042    0.00000000

     Total force =     0.003632     Total SCF correction =     0.000001


     Computing stress (Cartesian axis) and pressure

          total   stress  (Ry/bohr**3)                   (kbar)     P=      -20.40
  -0.00011862   0.00000000   0.00000000          -17.45        0.00        0.00
   0.00000000  -0.00011862   0.00000000            0.00      -17.45        0.00
   0.00000000   0.00000000  -0.00017869            0.00        0.00      -26.29

     kinetic stress (kbar)  48449.07      0.00      0.00
                                0.00  48449.07      0.00
                                0.00      0.00  47538.95

     local   stress (kbar) -12676.38      0.00      0.00
                                0.00 -12676.38     -0.00
                                0.00     -0.00 -44420.45

     nonloc. stress (kbar)  14525.51      0.00      0.00
                                0.00  14525.51      0.00
                                0.00      0.00  14743.14

     hartree stress (kbar)   9608.83      0.00      0.00
                                0.00   9608.83     -0.00
                                0.00     -0.00  21382.99

     exc-cor stress (kbar)  -7288.27      0.00     -0.00
                                0.00  -7288.27      0.00
                               -0.00      0.00  -7263.48

     corecor stress (kbar)      0.00      0.00      0.00
                                0.00      0.00      0.00
                                0.00      0.00      0.00

     ewald   stress (kbar) -52636.21     -0.00     -0.00
                               -0.00 -52636.21     -0.00
                               -0.00     -0.00 -32007.45

     hubbard stress (kbar)      0.00      0.00      0.00
                                0.00      0.00      0.00
                                0.00      0.00      0.00

     DFT-D   stress (kbar)      0.00      0.00      0.00
                                0.00      0.00      0.00
                                0.00      0.00      0.00

     XDM     stress (kbar)      0.00      0.00      0.00
                                0.00      0.00      0.00
                                0.00      0.00      0.00

     dft-nl  stress (kbar)      0.00      0.00      0.00
                                0.00      0.00      0.00
                                0.00      0.00      0.00

     TS-vdW  stress (kbar)      0.00      0.00      0.00
                                0.00      0.00      0.00
                                0.00      0.00      0.00


                                0.00      0.00      0.00
                                0.00      0.00      0.00


                                0.00      0.00      0.00


     Writing all to output data dir tmp/espresso.save/
 
     init_run     :      5.05s CPU      2.62s WALL (       1 calls)
     electrons    :    169.56s CPU     86.83s WALL (       1 calls)
     forces       :      9.97s CPU      5.10s WALL (       1 calls)
     stress       :     13.37s CPU      6.76s WALL (       1 calls)

     Called by init_run:
     wfcinit      :      4.98s CPU      2.56s WALL (       1 calls)
     wfcinit:atom :      0.02s CPU      0.01s WALL (      50 calls)
     wfcinit:wfcr :      4.85s CPU      2.49s WALL (      50 calls)
     potinit      :      0.02s CPU      0.01s WALL (       1 calls)
     hinit0       :      0.03s CPU      0.03s WALL (       1 calls)

     Called by electrons:
     c_bands      :    155.27s CPU     79.46s WALL (      10 calls)
     sum_band     :     14.10s CPU      7.24s WALL (      10 calls)
     v_of_rho     :      0.05s CPU      0.03s WALL (      11 calls)
     v_h          :      0.00s CPU      0.00s WALL (      11 calls)
     v_xc         :      0.04s CPU      0.02s WALL (      11 calls)
     mix_rho      :      0.04s CPU      0.02s WALL (      10 calls)

     Called by c_bands:
     init_us_2    :      0.43s CPU      0.23s WALL (    1150 calls)
     init_us_2:cp :      0.42s CPU      0.22s WALL (    1150 calls)
     cegterg      :    143.55s CPU     73.50s WALL (     500 calls)

     Called by sum_band:
     sum_band:wei :      0.10s CPU      0.05s WALL (      10 calls)
     sum_band:loo :     13.98s CPU      7.18s WALL (      10 calls)
     sum_band:buf :      0.08s CPU      0.04s WALL (     500 calls)
     sum_band:ini :      0.14s CPU      0.07s WALL (     500 calls)

     Called by *egterg:
     cdiaghg      :     20.89s CPU     10.62s WALL (    1688 calls)
     cegterg:over :      9.02s CPU      4.59s WALL (    1188 calls)
     cegterg:upda :      7.02s CPU      3.56s WALL (    1188 calls)
     cegterg:last :     12.38s CPU      6.28s WALL (    1000 calls)
     cdiaghg:chol :      0.98s CPU      0.50s WALL (    1688 calls)
     cdiaghg:inve :      0.15s CPU      0.08s WALL (    1688 calls)
     cdiaghg:para :      2.18s CPU      1.11s WALL (    3376 calls)
     h_psi        :     95.23s CPU     48.96s WALL (    1738 calls)
     g_psi        :      0.14s CPU      0.07s WALL (    1188 calls)

     Called by h_psi:
     h_psi:calbec :     11.56s CPU      6.04s WALL (    1738 calls)
     vloc_psi     :     67.26s CPU     34.58s WALL (    1738 calls)
     add_vuspsi   :     16.20s CPU      8.24s WALL (    1738 calls)

     General routines
     calbec       :     16.24s CPU      8.45s WALL (    1988 calls)
     fft          :      0.07s CPU      0.04s WALL (     150 calls)
     ffts         :      0.01s CPU      0.01s WALL (      40 calls)
     fftw         :     76.10s CPU     39.13s WALL (  428876 calls)
 
     Parallel routines
 
     PWSCF        :   3m24.00s CPU   1m46.52s WALL

 
   This run was terminated on:  10:59:42  10Apr2022            

=------------------------------------------------------------------------------=
   JOB DONE.
=------------------------------------------------------------------------------=
