
     Program PWSCF v.7.0 starts on 10Apr2022 at  9:48:56 

     This program is part of the open-source Quantum ESPRESSO suite
     for quantum simulation of materials; please cite
         "P. Giannozzi et al., J. Phys.:Condens. Matter 21 395502 (2009);
         "P. Giannozzi et al., J. Phys.:Condens. Matter 29 465901 (2017);
         "P. Giannozzi et al., J. Chem. Phys. 152 154105 (2020);
          URL http://www.quantum-espresso.org", 
     in publications or presentations arising from this work. More details at
     http://www.quantum-espresso.org/quote

     Parallel version (MPI & OpenMP), running on      64 processor cores
     Number of MPI processes:                32
     Threads/MPI process:                     2

     MPI processes distributed on     1 nodes
     R & G space division:  proc/nbgrp/npool/nimage =      32
     231184 MiB available memory on the printing compute node when the environment starts
 
     Reading input from kpoints_223.pwi
Warning: card &CELL ignored
Warning: card / ignored

     Current dimensions of program PWSCF are:
     Max number of different atomic species (ntypx) = 10
     Max number of k-points (npk) =  40000
     Max angular momentum in pseudopotentials (lmaxx) =  4

     Subspace diagonalization in iterative solution of the eigenvalue problem:
     one sub-group per band group will be used
     scalapack distributed-memory algorithm (size of sub-group:  5*  5 procs)

 
     Parallelization info
     --------------------
     sticks:   dense  smooth     PW     G-vecs:    dense   smooth      PW
     Min          58      58     17                 1342     1342     205
     Max          59      59     18                 1345     1345     207
     Sum        1885    1885    545                42999    42999    6563
 
     Using Slab Decomposition
 

     Title: 
     IrO2 Unit Cell                                                             


     bravais-lattice index     =            6
     lattice parameter (alat)  =       8.5888  a.u.
     unit-cell volume          =     444.6868 (a.u.)^3
     number of atoms/cell      =            6
     number of atomic types    =            2
     number of electrons       =        58.00
     number of Kohn-Sham states=           70
     kinetic-energy cutoff     =      80.0000  Ry
     charge density cutoff     =     320.0000  Ry
     scf convergence threshold =      1.0E-09
     mixing beta               =       0.7000
     number of iterations used =            8  plain     mixing
     Exchange-correlation= PBE
                           (   1   4   3   4   0   0   0)
     Non magnetic calculation with spin-orbit


     celldm(1)=   8.588800  celldm(2)=   0.000000  celldm(3)=   0.701870
     celldm(4)=   0.000000  celldm(5)=   0.000000  celldm(6)=   0.000000

     crystal axes: (cart. coord. in units of alat)
               a(1) = (   1.000000   0.000000   0.000000 )  
               a(2) = (   0.000000   1.000000   0.000000 )  
               a(3) = (   0.000000   0.000000   0.701870 )  

     reciprocal axes: (cart. coord. in units 2 pi/alat)
               b(1) = (  1.000000  0.000000  0.000000 )  
               b(2) = (  0.000000  1.000000  0.000000 )  
               b(3) = (  0.000000  0.000000  1.424765 )  


     PseudoPot. # 1 for O  read from file:
     ../../XX_PSEUDO/O_ONCV_PBE_fr.upf
     MD5 check sum: 59c925217d3b58c6d762355590b68b09
     Pseudo is Norm-conserving, Zval =  6.0
     Generated using ONCVPSP code by D. R. Hamann
     Using radial grid of  936 points,  6 beta functions with: 
                l(1) =   0
                l(2) =   0
                l(3) =   1
                l(4) =   1
                l(5) =   1
                l(6) =   1

     PseudoPot. # 2 for Ir read from file:
     ../../XX_PSEUDO/Ir_ONCV_PBE_fr.upf
     MD5 check sum: 924e909c4146afa09f62ee3401806954
     Pseudo is Norm-conserving, Zval = 17.0
     Generated using ONCVPSP code by D. R. Hamann
     Using radial grid of 1310 points, 14 beta functions with: 
                l(1) =   0
                l(2) =   0
                l(3) =   1
                l(4) =   1
                l(5) =   1
                l(6) =   1
                l(7) =   2
                l(8) =   2
                l(9) =   2
               l(10) =   2
               l(11) =   3
               l(12) =   3
               l(13) =   3
               l(14) =   3

     atomic species   valence    mass     pseudopotential
        O              6.00    15.99900     O ( 1.00)
        Ir            17.00   192.21700     Ir( 1.00)

     16 Sym. Ops., with inversion, found ( 8 have fractional translation)


                                    s                        frac. trans.

      isym =  1     identity                                     

 cryst.   s( 1) = (     1          0          0      )
                  (     0          1          0      )
                  (     0          0          1      )

 cart.    s( 1) = (  1.0000000  0.0000000  0.0000000 )
                  (  0.0000000  1.0000000  0.0000000 )
                  (  0.0000000  0.0000000  1.0000000 )


      isym =  2     180 deg rotation - cart. axis [0,0,1]        

 cryst.   s( 2) = (    -1          0          0      )
                  (     0         -1          0      )
                  (     0          0          1      )

 cart.    s( 2) = ( -1.0000000  0.0000000  0.0000000 )
                  (  0.0000000 -1.0000000  0.0000000 )
                  (  0.0000000  0.0000000  1.0000000 )


      isym =  3     180 deg rotation - cart. axis [0,1,0]        

 cryst.   s( 3) = (    -1          0          0      )    f =(  0.5000000 )
                  (     0          1          0      )       ( -0.5000000 )
                  (     0          0         -1      )       (  0.5000000 )

 cart.    s( 3) = ( -1.0000000  0.0000000  0.0000000 )    f =(  0.5000000 )
                  (  0.0000000  1.0000000  0.0000000 )       ( -0.5000000 )
                  (  0.0000000  0.0000000 -1.0000000 )       (  0.3509351 )


      isym =  4     180 deg rotation - cart. axis [1,0,0]        

 cryst.   s( 4) = (     1          0          0      )    f =( -0.5000000 )
                  (     0         -1          0      )       (  0.5000000 )
                  (     0          0         -1      )       (  0.5000000 )

 cart.    s( 4) = (  1.0000000  0.0000000  0.0000000 )    f =( -0.5000000 )
                  (  0.0000000 -1.0000000  0.0000000 )       (  0.5000000 )
                  (  0.0000000  0.0000000 -1.0000000 )       (  0.3509351 )


      isym =  5     180 deg rotation - cart. axis [1,1,0]        

 cryst.   s( 5) = (     0          1          0      )
                  (     1          0          0      )
                  (     0          0         -1      )

 cart.    s( 5) = (  0.0000000  1.0000000  0.0000000 )
                  (  1.0000000  0.0000000  0.0000000 )
                  (  0.0000000  0.0000000 -1.0000000 )


      isym =  6     180 deg rotation - cart. axis [1,-1,0]       

 cryst.   s( 6) = (     0         -1          0      )
                  (    -1          0          0      )
                  (     0          0         -1      )

 cart.    s( 6) = (  0.0000000 -1.0000000  0.0000000 )
                  ( -1.0000000  0.0000000  0.0000000 )
                  (  0.0000000  0.0000000 -1.0000000 )


      isym =  7      90 deg rotation - cart. axis [0,0,-1]       

 cryst.   s( 7) = (     0         -1          0      )    f =( -0.5000000 )
                  (     1          0          0      )       (  0.5000000 )
                  (     0          0          1      )       ( -0.5000000 )

 cart.    s( 7) = (  0.0000000  1.0000000  0.0000000 )    f =( -0.5000000 )
                  ( -1.0000000  0.0000000  0.0000000 )       (  0.5000000 )
                  (  0.0000000  0.0000000  1.0000000 )       ( -0.3509351 )


      isym =  8      90 deg rotation - cart. axis [0,0,1]        

 cryst.   s( 8) = (     0          1          0      )    f =(  0.5000000 )
                  (    -1          0          0      )       ( -0.5000000 )
                  (     0          0          1      )       ( -0.5000000 )

 cart.    s( 8) = (  0.0000000 -1.0000000  0.0000000 )    f =(  0.5000000 )
                  (  1.0000000  0.0000000  0.0000000 )       ( -0.5000000 )
                  (  0.0000000  0.0000000  1.0000000 )       ( -0.3509351 )


      isym =  9     inversion                                    

 cryst.   s( 9) = (    -1          0          0      )
                  (     0         -1          0      )
                  (     0          0         -1      )

 cart.    s( 9) = ( -1.0000000  0.0000000  0.0000000 )
                  (  0.0000000 -1.0000000  0.0000000 )
                  (  0.0000000  0.0000000 -1.0000000 )


      isym = 10     inv. 180 deg rotation - cart. axis [0,0,1]   

 cryst.   s(10) = (     1          0          0      )
                  (     0          1          0      )
                  (     0          0         -1      )

 cart.    s(10) = (  1.0000000  0.0000000  0.0000000 )
                  (  0.0000000  1.0000000  0.0000000 )
                  (  0.0000000  0.0000000 -1.0000000 )


      isym = 11     inv. 180 deg rotation - cart. axis [0,1,0]   

 cryst.   s(11) = (     1          0          0      )    f =( -0.5000000 )
                  (     0         -1          0      )       (  0.5000000 )
                  (     0          0          1      )       ( -0.5000000 )

 cart.    s(11) = (  1.0000000  0.0000000  0.0000000 )    f =( -0.5000000 )
                  (  0.0000000 -1.0000000  0.0000000 )       (  0.5000000 )
                  (  0.0000000  0.0000000  1.0000000 )       ( -0.3509351 )


      isym = 12     inv. 180 deg rotation - cart. axis [1,0,0]   

 cryst.   s(12) = (    -1          0          0      )    f =(  0.5000000 )
                  (     0          1          0      )       ( -0.5000000 )
                  (     0          0          1      )       ( -0.5000000 )

 cart.    s(12) = ( -1.0000000  0.0000000  0.0000000 )    f =(  0.5000000 )
                  (  0.0000000  1.0000000  0.0000000 )       ( -0.5000000 )
                  (  0.0000000  0.0000000  1.0000000 )       ( -0.3509351 )


      isym = 13     inv. 180 deg rotation - cart. axis [1,1,0]   

 cryst.   s(13) = (     0         -1          0      )
                  (    -1          0          0      )
                  (     0          0          1      )

 cart.    s(13) = (  0.0000000 -1.0000000  0.0000000 )
                  ( -1.0000000  0.0000000  0.0000000 )
                  (  0.0000000  0.0000000  1.0000000 )


      isym = 14     inv. 180 deg rotation - cart. axis [1,-1,0]  

 cryst.   s(14) = (     0          1          0      )
                  (     1          0          0      )
                  (     0          0          1      )

 cart.    s(14) = (  0.0000000  1.0000000  0.0000000 )
                  (  1.0000000  0.0000000  0.0000000 )
                  (  0.0000000  0.0000000  1.0000000 )


      isym = 15     inv.  90 deg rotation - cart. axis [0,0,-1]  

 cryst.   s(15) = (     0          1          0      )    f =(  0.5000000 )
                  (    -1          0          0      )       ( -0.5000000 )
                  (     0          0         -1      )       (  0.5000000 )

 cart.    s(15) = (  0.0000000 -1.0000000  0.0000000 )    f =(  0.5000000 )
                  (  1.0000000  0.0000000  0.0000000 )       ( -0.5000000 )
                  (  0.0000000  0.0000000 -1.0000000 )       (  0.3509351 )


      isym = 16     inv.  90 deg rotation - cart. axis [0,0,1]   

 cryst.   s(16) = (     0         -1          0      )    f =( -0.5000000 )
                  (     1          0          0      )       (  0.5000000 )
                  (     0          0         -1      )       (  0.5000000 )

 cart.    s(16) = (  0.0000000  1.0000000  0.0000000 )    f =( -0.5000000 )
                  ( -1.0000000  0.0000000  0.0000000 )       (  0.5000000 )
                  (  0.0000000  0.0000000 -1.0000000 )       (  0.3509351 )


     double point group D_4h(4/mmm)
     there are 14 classes and  4 irreducible representations
     the character table:

       E     -E    2C4   -2C4   C2    2C2' 2C2'' i     -i    2S4   -2S4   s_h 
                               -C2   -2C2' -2C2'                         -s_h 
G_6+   2.00 -2.00  1.41 -1.41  0.00  0.00  0.00  2.00 -2.00  1.41 -1.41  0.00
G_7+   2.00 -2.00 -1.41  1.41  0.00  0.00  0.00  2.00 -2.00 -1.41  1.41  0.00
G_6-   2.00 -2.00  1.41 -1.41  0.00  0.00  0.00 -2.00  2.00 -1.41  1.41  0.00
G_7-   2.00 -2.00 -1.41  1.41  0.00  0.00  0.00 -2.00  2.00  1.41 -1.41  0.00

        2s_v  2s_d
       -2s_v -2s_d
G_6+   0.00  0.00
G_7+   0.00  0.00
G_6-   0.00  0.00
G_7-   0.00  0.00

     the symmetry operations in each class and the name of the first element:

     E             1
          identity                                               
     -E           -1
          identity E                                             
     2C4           7    8
           90 deg rotation - cart. axis [0,0,-1]                 
     -2C4         -7   -8
           90 deg rotation - cart. axis [0,0,-1] E               
      C2  -C2      2   -2
          180 deg rotation - cart. axis [0,0,1]                  
      2C2'-2C2'    3   -3    4   -4
          180 deg rotation - cart. axis [0,1,0]                  
     2C2''-2C2'    5   -5   -6    6
          180 deg rotation - cart. axis [1,1,0]                  
     i             9
          inversion                                              
     -i           -9
          inversion E                                            
     2S4          15   16
          inv.  90 deg rotation - cart. axis [0,0,-1]            
     -2S4        -15  -16
          inv.  90 deg rotation - cart. axis [0,0,-1] E          
      s_h -s_h    10  -10
          inv. 180 deg rotation - cart. axis [0,0,1]             
      2s_v-2s_v   11  -11   12  -12
          inv. 180 deg rotation - cart. axis [0,1,0]             
      2s_d-2s_d   13  -13  -14   14
          inv. 180 deg rotation - cart. axis [1,1,0]             

   Cartesian axes

     site n.     atom                  positions (alat units)
         1           Ir  tau(   1) = (   0.0000000   0.0000000   0.0000000  )
         2           Ir  tau(   2) = (   0.5000000   0.5000000   0.3509351  )
         3           O   tau(   3) = (   0.1916000   0.8084000   0.3509351  )
         4           O   tau(   4) = (   0.3084000   0.3084000   0.0000000  )
         5           O   tau(   5) = (   0.6916000   0.6916000   0.0000000  )
         6           O   tau(   6) = (   0.8084000   0.1916000   0.3509351  )

   Crystallographic axes

     site n.     atom                  positions (cryst. coord.)
         1           Ir  tau(   1) = (  0.0000000  0.0000000  0.0000000  )
         2           Ir  tau(   2) = (  0.5000000  0.5000000  0.5000000  )
         3           O   tau(   3) = (  0.1916000  0.8084000  0.5000000  )
         4           O   tau(   4) = (  0.3084000  0.3084000  0.0000000  )
         5           O   tau(   5) = (  0.6916000  0.6916000  0.0000000  )
         6           O   tau(   6) = (  0.8084000  0.1916000  0.5000000  )

     number of k points=     6  Methfessel-Paxton smearing, width (Ry)=  0.0050
                       cart. coord. in units 2pi/alat
        k(    1) = (   0.0000000   0.0000000   0.0000000), wk =   0.0833333
        k(    2) = (   0.0000000   0.0000000   0.4749216), wk =   0.1666667
        k(    3) = (   0.0000000  -0.5000000   0.0000000), wk =   0.1666667
        k(    4) = (   0.0000000  -0.5000000   0.4749216), wk =   0.3333333
        k(    5) = (  -0.5000000  -0.5000000   0.0000000), wk =   0.0833333
        k(    6) = (  -0.5000000  -0.5000000   0.4749216), wk =   0.1666667

                       cryst. coord.
        k(    1) = (   0.0000000   0.0000000   0.0000000), wk =   0.0833333
        k(    2) = (   0.0000000   0.0000000   0.3333333), wk =   0.1666667
        k(    3) = (   0.0000000  -0.5000000   0.0000000), wk =   0.1666667
        k(    4) = (   0.0000000  -0.5000000   0.3333333), wk =   0.3333333
        k(    5) = (  -0.5000000  -0.5000000   0.0000000), wk =   0.0833333
        k(    6) = (  -0.5000000  -0.5000000   0.3333333), wk =   0.1666667

     Dense  grid:    42999 G-vectors     FFT dimensions: (  50,  50,  36)

     Dynamical RAM for                 wfc:       0.36 MB

     Dynamical RAM for     wfc (w. buffer):       2.50 MB

     Dynamical RAM for           str. fact:       0.04 MB

     Dynamical RAM for           local pot:       0.00 MB

     Dynamical RAM for          nlocal pot:       0.46 MB

     Dynamical RAM for                qrad:      20.10 MB

     Dynamical RAM for          rho,v,vnew:       0.70 MB

     Dynamical RAM for               rhoin:       0.23 MB

     Dynamical RAM for            rho*nmix:       1.31 MB

     Dynamical RAM for           G-vectors:       0.09 MB

     Dynamical RAM for          h,s,v(r/c):       0.04 MB

     Dynamical RAM for          <psi|beta>:       0.38 MB

     Dynamical RAM for                 psi:       0.71 MB

     Dynamical RAM for                hpsi:       0.71 MB

     Dynamical RAM for      wfcinit/wfcrot:       0.67 MB

     Estimated static dynamical RAM per process >      24.49 MB

     Estimated max dynamical RAM per process >      27.65 MB

     Estimated total dynamical RAM >     884.74 MB

     Initial potential from superposition of free atoms

     starting charge      57.9997, renormalised to      58.0000
     Starting wfcs are   72 randomized atomic wfcs

     total cpu time spent up to now is        0.5 secs

     Self-consistent Calculation

     iteration #  1     ecut=    80.00 Ry     beta= 0.70
     Davidson diagonalization with overlap

---- Real-time Memory Report at c_bands before calling an iterative solver
            72 MiB given to the printing process from OS
             0 MiB allocation reported by mallinfo(arena+hblkhd)
        229791 MiB available memory on the node where the printing process lives
------------------
     ethr =  1.00E-02,  avg # of iterations =  2.5

     total cpu time spent up to now is        1.5 secs

     total energy              =    -552.40450533 Ry
     estimated scf accuracy    <       1.23023083 Ry

     iteration #  2     ecut=    80.00 Ry     beta= 0.70
     Davidson diagonalization with overlap

---- Real-time Memory Report at c_bands before calling an iterative solver
            77 MiB given to the printing process from OS
             0 MiB allocation reported by mallinfo(arena+hblkhd)
        229693 MiB available memory on the node where the printing process lives
------------------
     ethr =  2.12E-03,  avg # of iterations =  2.0

     total cpu time spent up to now is        2.6 secs

     total energy              =    -552.31382333 Ry
     estimated scf accuracy    <       4.17241073 Ry

     iteration #  3     ecut=    80.00 Ry     beta= 0.70
     Davidson diagonalization with overlap

---- Real-time Memory Report at c_bands before calling an iterative solver
            79 MiB given to the printing process from OS
             0 MiB allocation reported by mallinfo(arena+hblkhd)
        229576 MiB available memory on the node where the printing process lives
------------------
     ethr =  2.12E-03,  avg # of iterations =  2.0

     total cpu time spent up to now is        3.7 secs

     total energy              =    -553.06598068 Ry
     estimated scf accuracy    <       0.02761880 Ry

     iteration #  4     ecut=    80.00 Ry     beta= 0.70
     Davidson diagonalization with overlap

---- Real-time Memory Report at c_bands before calling an iterative solver
            82 MiB given to the printing process from OS
             0 MiB allocation reported by mallinfo(arena+hblkhd)
        229541 MiB available memory on the node where the printing process lives
------------------
     ethr =  4.76E-05,  avg # of iterations =  3.2

     total cpu time spent up to now is        4.9 secs

     total energy              =    -553.06995486 Ry
     estimated scf accuracy    <       0.00358452 Ry

     iteration #  5     ecut=    80.00 Ry     beta= 0.70
     Davidson diagonalization with overlap

---- Real-time Memory Report at c_bands before calling an iterative solver
            83 MiB given to the printing process from OS
             0 MiB allocation reported by mallinfo(arena+hblkhd)
        229527 MiB available memory on the node where the printing process lives
------------------
     ethr =  6.18E-06,  avg # of iterations =  2.0

     total cpu time spent up to now is        5.8 secs

     total energy              =    -553.07048416 Ry
     estimated scf accuracy    <       0.00017728 Ry

     iteration #  6     ecut=    80.00 Ry     beta= 0.70
     Davidson diagonalization with overlap

---- Real-time Memory Report at c_bands before calling an iterative solver
            83 MiB given to the printing process from OS
             0 MiB allocation reported by mallinfo(arena+hblkhd)
        229521 MiB available memory on the node where the printing process lives
------------------
     ethr =  3.06E-07,  avg # of iterations =  2.0

     total cpu time spent up to now is        6.8 secs

     total energy              =    -553.07051417 Ry
     estimated scf accuracy    <       0.00000363 Ry

     iteration #  7     ecut=    80.00 Ry     beta= 0.70
     Davidson diagonalization with overlap

---- Real-time Memory Report at c_bands before calling an iterative solver
            84 MiB given to the printing process from OS
             0 MiB allocation reported by mallinfo(arena+hblkhd)
        229503 MiB available memory on the node where the printing process lives
------------------
     ethr =  6.26E-09,  avg # of iterations =  2.2

     total cpu time spent up to now is        7.9 secs

     total energy              =    -553.07051540 Ry
     estimated scf accuracy    <       0.00000056 Ry

     iteration #  8     ecut=    80.00 Ry     beta= 0.70
     Davidson diagonalization with overlap

---- Real-time Memory Report at c_bands before calling an iterative solver
            84 MiB given to the printing process from OS
             0 MiB allocation reported by mallinfo(arena+hblkhd)
        229495 MiB available memory on the node where the printing process lives
------------------
     ethr =  9.71E-10,  avg # of iterations =  2.0

     total cpu time spent up to now is        8.9 secs

     total energy              =    -553.07051550 Ry
     estimated scf accuracy    <       0.00000003 Ry

     iteration #  9     ecut=    80.00 Ry     beta= 0.70
     Davidson diagonalization with overlap

---- Real-time Memory Report at c_bands before calling an iterative solver
            85 MiB given to the printing process from OS
             0 MiB allocation reported by mallinfo(arena+hblkhd)
        229490 MiB available memory on the node where the printing process lives
------------------
     ethr =  5.64E-11,  avg # of iterations =  3.5

     total cpu time spent up to now is       10.1 secs

     total energy              =    -553.07051550 Ry
     estimated scf accuracy    <          6.0E-09 Ry

     iteration # 10     ecut=    80.00 Ry     beta= 0.70
     Davidson diagonalization with overlap

---- Real-time Memory Report at c_bands before calling an iterative solver
            85 MiB given to the printing process from OS
             0 MiB allocation reported by mallinfo(arena+hblkhd)
        229486 MiB available memory on the node where the printing process lives
------------------
     ethr =  1.03E-11,  avg # of iterations =  2.0

     total cpu time spent up to now is       11.1 secs

     End of self-consistent calculation

          k = 0.0000 0.0000 0.0000 (  5409 PWs)   bands (ev):

   -79.3789 -79.3789 -79.3776 -79.3776 -46.2214 -46.2214 -46.2107 -46.2107
   -32.7575 -32.7575 -32.7476 -32.7476 -32.6202 -32.6202 -32.6051 -32.6051
    -7.0745  -7.0745  -5.9182  -5.9182  -5.0041  -5.0041  -4.8027  -4.8027
     4.2734   4.2734   4.5223   4.5223   6.0330   6.0330   6.1444   6.1444
     6.2566   6.2566   8.7856   8.7856   8.9390   8.9390   9.1959   9.1959
    10.3323  10.3323  10.9866  10.9866  10.9961  10.9961  11.0295  11.0295
    11.2050  11.2050  11.3901  11.3901  11.6393  11.6393  11.6781  11.6781
    12.0614  12.0614  14.6504  14.6504  15.0736  15.0736  17.6889  17.6889
    17.8964  17.8964  18.0462  18.0462  19.4541  19.4541

     occupation numbers 
     1.0000   1.0000   1.0000   1.0000   1.0000   1.0000   1.0000   1.0000
     1.0000   1.0000   1.0000   1.0000   1.0000   1.0000   1.0000   1.0000
     1.0000   1.0000   1.0000   1.0000   1.0000   1.0000   1.0000   1.0000
     1.0000   1.0000   1.0000   1.0000   1.0000   1.0000   1.0000   1.0000
     1.0000   1.0000   1.0000   1.0000   1.0000   1.0000   1.0000   1.0000
     1.0000   1.0000   1.0000   1.0000   1.0000   1.0000   1.0000   1.0000
     1.0000   1.0000   1.0000   1.0000   1.0000   1.0000   1.0000   1.0000
     1.0000   1.0000  -0.0000  -0.0000  -0.0000  -0.0000  -0.0000  -0.0000
    -0.0000  -0.0000  -0.0000  -0.0000  -0.0000  -0.0000

          k = 0.0000 0.0000 0.4749 (  5385 PWs)   bands (ev):

   -79.3769 -79.3769 -79.3762 -79.3762 -46.2271 -46.2271 -46.2218 -46.2218
   -32.7932 -32.7932 -32.7881 -32.7881 -32.6367 -32.6367 -32.6189 -32.6189
    -6.2486  -6.2486  -5.6222  -5.6222  -5.3137  -5.3137  -5.2448  -5.2448
     5.3383   5.3383   5.5112   5.5112   6.5564   6.5564   6.7271   6.7271
     6.8442   6.8442   7.3039   7.3039   7.6370   7.6370   8.6727   8.6727
     8.8279   8.8279   9.6582   9.6582   9.9056   9.9056   9.9371   9.9371
    11.7965  11.7965  12.1876  12.1876  12.2743  12.2743  13.5537  13.5537
    13.6462  13.6462  14.1950  14.1950  15.9815  15.9815  16.3350  16.3350
    16.6305  16.6305  17.3692  17.3692  20.8831  20.8831

     occupation numbers 
     1.0000   1.0000   1.0000   1.0000   1.0000   1.0000   1.0000   1.0000
     1.0000   1.0000   1.0000   1.0000   1.0000   1.0000   1.0000   1.0000
     1.0000   1.0000   1.0000   1.0000   1.0000   1.0000   1.0000   1.0000
     1.0000   1.0000   1.0000   1.0000   1.0000   1.0000   1.0000   1.0000
     1.0000   1.0000   1.0000   1.0000   1.0000   1.0000   1.0000   1.0000
     1.0000   1.0000   1.0000   1.0000   1.0000   1.0000   1.0000   1.0000
     1.0000   1.0000   1.0000   1.0000   1.0000   1.0000   1.0000   1.0000
     1.0003   1.0003  -0.0000  -0.0000  -0.0000  -0.0000  -0.0000  -0.0000
    -0.0000  -0.0000  -0.0000  -0.0000  -0.0000  -0.0000

          k = 0.0000-0.5000 0.0000 (  5380 PWs)   bands (ev):

   -79.3783 -79.3783 -79.3783 -79.3783 -46.2161 -46.2161 -46.2161 -46.2161
   -32.7492 -32.7492 -32.7492 -32.7492 -32.6166 -32.6166 -32.6166 -32.6166
    -6.2807  -6.2807  -6.2807  -6.2807  -5.2636  -5.2636  -5.2636  -5.2636
     5.6323   5.6323   5.6323   5.6323   6.2397   6.2397   6.2397   6.2397
     7.2699   7.2699   7.2699   7.2699   7.8901   7.8901   7.8901   7.8901
     8.7718   8.7718   8.7718   8.7718  10.8220  10.8220  10.8220  10.8220
    12.1232  12.1232  12.1232  12.1232  12.5081  12.5081  12.5081  12.5081
    13.6393  13.6393  13.6393  13.6393  17.2221  17.2221  17.2221  17.2221
    17.5208  17.5208  17.5208  17.5208  20.7704  20.7704

     occupation numbers 
     1.0000   1.0000   1.0000   1.0000   1.0000   1.0000   1.0000   1.0000
     1.0000   1.0000   1.0000   1.0000   1.0000   1.0000   1.0000   1.0000
     1.0000   1.0000   1.0000   1.0000   1.0000   1.0000   1.0000   1.0000
     1.0000   1.0000   1.0000   1.0000   1.0000   1.0000   1.0000   1.0000
     1.0000   1.0000   1.0000   1.0000   1.0000   1.0000   1.0000   1.0000
     1.0000   1.0000   1.0000   1.0000   1.0000   1.0000   1.0000   1.0000
     1.0000   1.0000   1.0000   1.0000   1.0000   1.0000   1.0000   1.0000
     1.0002   1.0002   1.0002   1.0002  -0.0000  -0.0000  -0.0000  -0.0000
    -0.0000  -0.0000  -0.0000  -0.0000  -0.0000  -0.0000

          k = 0.0000-0.5000 0.4749 (  5380 PWs)   bands (ev):

   -79.3765 -79.3765 -79.3765 -79.3765 -46.2253 -46.2253 -46.2236 -46.2236
   -32.8043 -32.8043 -32.7766 -32.7766 -32.6375 -32.6375 -32.6193 -32.6193
    -5.8157  -5.8157  -5.8118  -5.8118  -5.4931  -5.4931  -5.3596  -5.3596
     5.9369   5.9369   5.9628   5.9628   6.1698   6.1698   6.2011   6.2011
     6.9222   6.9222   7.1717   7.1717   8.3187   8.3187   8.3417   8.3417
     8.9261   8.9261   9.0168   9.0168  10.2541  10.2541  10.3026  10.3026
    11.7252  11.7252  11.7699  11.7699  12.3893  12.3893  12.6838  12.6838
    13.8569  13.8569  14.2692  14.2692  15.3423  15.3423  15.3915  15.3915
    17.9853  17.9853  18.1200  18.1200  22.5187  22.5194

     occupation numbers 
     1.0000   1.0000   1.0000   1.0000   1.0000   1.0000   1.0000   1.0000
     1.0000   1.0000   1.0000   1.0000   1.0000   1.0000   1.0000   1.0000
     1.0000   1.0000   1.0000   1.0000   1.0000   1.0000   1.0000   1.0000
     1.0000   1.0000   1.0000   1.0000   1.0000   1.0000   1.0000   1.0000
     1.0000   1.0000   1.0000   1.0000   1.0000   1.0000   1.0000   1.0000
     1.0000   1.0000   1.0000   1.0000   1.0000   1.0000   1.0000   1.0000
     1.0000   1.0000   1.0000   1.0000   1.0000   1.0000   1.0000   1.0000
     0.2497   0.2497  -0.0000  -0.0000  -0.0000  -0.0000  -0.0000  -0.0000
    -0.0000  -0.0000  -0.0000  -0.0000  -0.0000  -0.0000

          k =-0.5000-0.5000 0.0000 (  5412 PWs)   bands (ev):

   -79.3783 -79.3783 -79.3783 -79.3783 -46.2161 -46.2161 -46.2161 -46.2161
   -32.7521 -32.7521 -32.7521 -32.7521 -32.6141 -32.6141 -32.6141 -32.6141
    -6.4119  -6.4119  -6.4119  -6.4119  -5.0368  -5.0368  -5.0368  -5.0368
     4.4053   4.4053   4.4053   4.4053   6.0117   6.0117   6.0117   6.0117
     8.7359   8.7359   8.7359   8.7359   8.7759   8.7759   8.7759   8.7759
     9.5941   9.5941   9.5941   9.5941  10.3623  10.3623  10.3623  10.3623
    11.1239  11.1239  11.1239  11.1239  11.7500  11.7500  11.7500  11.7500
    14.0535  14.0535  14.0535  14.0535  16.2409  16.2409  16.2409  16.2409
    17.9275  17.9275  17.9275  17.9275  22.3904  22.3904

     occupation numbers 
     1.0000   1.0000   1.0000   1.0000   1.0000   1.0000   1.0000   1.0000
     1.0000   1.0000   1.0000   1.0000   1.0000   1.0000   1.0000   1.0000
     1.0000   1.0000   1.0000   1.0000   1.0000   1.0000   1.0000   1.0000
     1.0000   1.0000   1.0000   1.0000   1.0000   1.0000   1.0000   1.0000
     1.0000   1.0000   1.0000   1.0000   1.0000   1.0000   1.0000   1.0000
     1.0000   1.0000   1.0000   1.0000   1.0000   1.0000   1.0000   1.0000
     1.0000   1.0000   1.0000   1.0000   1.0000   1.0000   1.0000   1.0000
    -0.0000  -0.0000  -0.0000  -0.0000  -0.0000  -0.0000  -0.0000  -0.0000
    -0.0000  -0.0000  -0.0000  -0.0000  -0.0000  -0.0000

          k =-0.5000-0.5000 0.4749 (  5340 PWs)   bands (ev):

   -79.3765 -79.3765 -79.3765 -79.3765 -46.2245 -46.2245 -46.2245 -46.2245
   -32.7909 -32.7909 -32.7909 -32.7909 -32.6283 -32.6283 -32.6283 -32.6283
    -5.8195  -5.8195  -5.8195  -5.8195  -5.3889  -5.3889  -5.3889  -5.3889
     5.3529   5.3529   5.3529   5.3529   6.1406   6.1406   6.1406   6.1406
     7.2193   7.2193   7.2193   7.2193   8.5991   8.5991   8.5991   8.5991
     9.3828   9.3828   9.3828   9.3828  10.2679  10.2679  10.2679  10.2679
    11.9767  11.9767  11.9767  11.9767  12.8645  12.8645  12.8645  12.8645
    13.2952  13.2952  13.2952  13.2952  16.3540  16.3540  16.3540  16.3540
    17.0600  17.0600  17.0600  17.0600  23.0681  23.0681

     occupation numbers 
     1.0000   1.0000   1.0000   1.0000   1.0000   1.0000   1.0000   1.0000
     1.0000   1.0000   1.0000   1.0000   1.0000   1.0000   1.0000   1.0000
     1.0000   1.0000   1.0000   1.0000   1.0000   1.0000   1.0000   1.0000
     1.0000   1.0000   1.0000   1.0000   1.0000   1.0000   1.0000   1.0000
     1.0000   1.0000   1.0000   1.0000   1.0000   1.0000   1.0000   1.0000
     1.0000   1.0000   1.0000   1.0000   1.0000   1.0000   1.0000   1.0000
     1.0000   1.0000   1.0000   1.0000   1.0000   1.0000   1.0000   1.0000
     1.0000   1.0000   1.0000   1.0000  -0.0000  -0.0000  -0.0000  -0.0000
    -0.0000  -0.0000  -0.0000  -0.0000  -0.0000  -0.0000

     the Fermi energy is    13.8357 ev

!    total energy              =    -553.07051550 Ry
     estimated scf accuracy    <          2.3E-10 Ry
     smearing contrib. (-TS)   =      -0.00034014 Ry
     internal energy E=F+TS    =    -553.07017536 Ry

     The total energy is F=E-TS. E is the sum of the following terms:
     one-electron contribution =    -190.90809744 Ry
     hartree contribution      =     122.73883600 Ry
     xc contribution           =     -69.91490341 Ry
     ewald contribution        =    -414.98601052 Ry

     convergence has been achieved in  10 iterations

     Forces acting on atoms (cartesian axes, Ry/au):

     atom    1 type  2   force =     0.00000000    0.00000000    0.00000000
     atom    2 type  2   force =     0.00000000    0.00000000    0.00000000
     atom    3 type  1   force =     0.00371166   -0.00371166    0.00000000
     atom    4 type  1   force =    -0.00371166   -0.00371166    0.00000000
     atom    5 type  1   force =     0.00371166    0.00371166    0.00000000
     atom    6 type  1   force =    -0.00371166    0.00371166    0.00000000
     The non-local contrib.  to forces
     atom    1 type  2   force =     0.00000000    0.00000000    0.00000000
     atom    2 type  2   force =     0.00000000    0.00000000    0.00000000
     atom    3 type  1   force =    -0.04463504    0.04463504    0.00000000
     atom    4 type  1   force =     0.04463504    0.04463504    0.00000000
     atom    5 type  1   force =    -0.04463504   -0.04463504    0.00000000
     atom    6 type  1   force =     0.04463504   -0.04463504    0.00000000
     The ionic contribution  to forces
     atom    1 type  2   force =    -0.00000000   -0.00000000    0.00000000
     atom    2 type  2   force =     0.00000000    0.00000000   -0.00000000
     atom    3 type  1   force =     1.42937233   -1.42937233    0.00000000
     atom    4 type  1   force =    -1.42937233   -1.42937233   -0.00000000
     atom    5 type  1   force =     1.42937233    1.42937233   -0.00000000
     atom    6 type  1   force =    -1.42937233    1.42937233    0.00000000
     The local contribution  to forces
     atom    1 type  2   force =     0.00000000    0.00000000    0.00000000
     atom    2 type  2   force =     0.00000000    0.00000000    0.00000000
     atom    3 type  1   force =    -1.38102466    1.38102466    0.00000000
     atom    4 type  1   force =     1.38102466    1.38102466   -0.00000000
     atom    5 type  1   force =    -1.38102466   -1.38102466    0.00000000
     atom    6 type  1   force =     1.38102466   -1.38102466    0.00000000
     The core correction contribution to forces
     atom    1 type  2   force =     0.00000000    0.00000000    0.00000000
     atom    2 type  2   force =     0.00000000    0.00000000    0.00000000
     atom    3 type  1   force =     0.00000000    0.00000000    0.00000000
     atom    4 type  1   force =     0.00000000    0.00000000    0.00000000
     atom    5 type  1   force =     0.00000000    0.00000000    0.00000000
     atom    6 type  1   force =     0.00000000    0.00000000    0.00000000
     The Hubbard contrib.    to forces
     atom    1 type  2   force =     0.00000000    0.00000000    0.00000000
     atom    2 type  2   force =     0.00000000    0.00000000    0.00000000
     atom    3 type  1   force =     0.00000000    0.00000000    0.00000000
     atom    4 type  1   force =     0.00000000    0.00000000    0.00000000
     atom    5 type  1   force =     0.00000000    0.00000000    0.00000000
     atom    6 type  1   force =     0.00000000    0.00000000    0.00000000
     The SCF correction term to forces
     atom    1 type  2   force =    -0.00000000    0.00000000    0.00000000
     atom    2 type  2   force =    -0.00000000   -0.00000000   -0.00000000
     atom    3 type  1   force =    -0.00000097    0.00000097    0.00000000
     atom    4 type  1   force =     0.00000097    0.00000097   -0.00000000
     atom    5 type  1   force =    -0.00000097   -0.00000097   -0.00000000
     atom    6 type  1   force =     0.00000097   -0.00000097    0.00000000

     Total force =     0.010498     Total SCF correction =     0.000003


     Computing stress (Cartesian axis) and pressure

          total   stress  (Ry/bohr**3)                   (kbar)     P=      -18.61
  -0.00014468   0.00000000   0.00000000          -21.28        0.00        0.00
   0.00000000  -0.00014468   0.00000000            0.00      -21.28        0.00
   0.00000000   0.00000000  -0.00009013            0.00        0.00      -13.26

     kinetic stress (kbar)  48452.73      0.00      0.00
                                0.00  48452.73      0.00
                                0.00      0.00  47545.96

     local   stress (kbar) -12689.55     -0.00      0.00
                               -0.00 -12689.55     -0.00
                                0.00     -0.00 -44398.58

     nonloc. stress (kbar)  14526.44      0.00      0.00
                                0.00  14526.44      0.00
                                0.00      0.00  14734.65

     hartree stress (kbar)   9613.44     -0.00     -0.00
                               -0.00   9613.44      0.00
                               -0.00      0.00  21375.86

     exc-cor stress (kbar)  -7288.12     -0.00      0.00
                               -0.00  -7288.12      0.00
                                0.00      0.00  -7263.70

     corecor stress (kbar)      0.00      0.00      0.00
                                0.00      0.00      0.00
                                0.00      0.00      0.00

     ewald   stress (kbar) -52636.21     -0.00     -0.00
                               -0.00 -52636.21     -0.00
                               -0.00     -0.00 -32007.45

     hubbard stress (kbar)      0.00      0.00      0.00
                                0.00      0.00      0.00
                                0.00      0.00      0.00

     DFT-D   stress (kbar)      0.00      0.00      0.00
                                0.00      0.00      0.00
                                0.00      0.00      0.00

     XDM     stress (kbar)      0.00      0.00      0.00
                                0.00      0.00      0.00
                                0.00      0.00      0.00

     dft-nl  stress (kbar)      0.00      0.00      0.00
                                0.00      0.00      0.00
                                0.00      0.00      0.00

     TS-vdW  stress (kbar)      0.00      0.00      0.00
                                0.00      0.00      0.00
                                0.00      0.00      0.00


                                0.00      0.00      0.00
                                0.00      0.00      0.00


                                0.00      0.00      0.00


     Writing all to output data dir tmp/espresso.save/
 
     init_run     :      0.66s CPU      0.37s WALL (       1 calls)
     electrons    :     20.76s CPU     10.64s WALL (       1 calls)
     forces       :      1.04s CPU      0.54s WALL (       1 calls)
     stress       :      1.58s CPU      0.80s WALL (       1 calls)

     Called by init_run:
     wfcinit      :      0.60s CPU      0.31s WALL (       1 calls)
     wfcinit:atom :      0.00s CPU      0.00s WALL (       6 calls)
     wfcinit:wfcr :      0.58s CPU      0.30s WALL (       6 calls)
     potinit      :      0.02s CPU      0.01s WALL (       1 calls)
     hinit0       :      0.03s CPU      0.04s WALL (       1 calls)

     Called by electrons:
     c_bands      :     18.90s CPU      9.68s WALL (      10 calls)
     sum_band     :      1.73s CPU      0.89s WALL (      10 calls)
     v_of_rho     :      0.05s CPU      0.03s WALL (      11 calls)
     v_h          :      0.01s CPU      0.00s WALL (      11 calls)
     v_xc         :      0.05s CPU      0.02s WALL (      11 calls)
     mix_rho      :      0.05s CPU      0.03s WALL (      10 calls)

     Called by c_bands:
     init_us_2    :      0.06s CPU      0.03s WALL (     138 calls)
     init_us_2:cp :      0.06s CPU      0.03s WALL (     138 calls)
     cegterg      :     17.45s CPU      8.93s WALL (      60 calls)

     Called by sum_band:
     sum_band:wei :      0.01s CPU      0.01s WALL (      10 calls)
     sum_band:loo :      1.69s CPU      0.87s WALL (      10 calls)
     sum_band:buf :      0.01s CPU      0.01s WALL (      60 calls)
     sum_band:ini :      0.02s CPU      0.01s WALL (      60 calls)

     Called by *egterg:
     cdiaghg      :      2.56s CPU      1.31s WALL (     200 calls)
     cegterg:over :      1.07s CPU      0.55s WALL (     140 calls)
     cegterg:upda :      0.86s CPU      0.43s WALL (     140 calls)
     cegterg:last :      1.48s CPU      0.75s WALL (     120 calls)
     cdiaghg:chol :      0.12s CPU      0.06s WALL (     200 calls)
     cdiaghg:inve :      0.02s CPU      0.01s WALL (     200 calls)
     cdiaghg:para :      0.27s CPU      0.14s WALL (     400 calls)
     h_psi        :     11.62s CPU      5.97s WALL (     206 calls)
     g_psi        :      0.02s CPU      0.01s WALL (     140 calls)

     Called by h_psi:
     h_psi:calbec :      1.41s CPU      0.74s WALL (     206 calls)
     vloc_psi     :      8.16s CPU      4.19s WALL (     206 calls)
     add_vuspsi   :      2.03s CPU      1.03s WALL (     206 calls)

     General routines
     calbec       :      1.87s CPU      0.98s WALL (     236 calls)
     fft          :      0.06s CPU      0.03s WALL (     150 calls)
     ffts         :      0.01s CPU      0.01s WALL (      40 calls)
     fftw         :      9.22s CPU      4.74s WALL (   52148 calls)
 
     Parallel routines
 
     PWSCF        :     25.01s CPU     13.21s WALL

 
   This run was terminated on:   9:49: 9  10Apr2022            

=------------------------------------------------------------------------------=
   JOB DONE.
=------------------------------------------------------------------------------=
