
     Program PWSCF v.7.0 starts on 10Apr2022 at 10:52:46 

     This program is part of the open-source Quantum ESPRESSO suite
     for quantum simulation of materials; please cite
         "P. Giannozzi et al., J. Phys.:Condens. Matter 21 395502 (2009);
         "P. Giannozzi et al., J. Phys.:Condens. Matter 29 465901 (2017);
         "P. Giannozzi et al., J. Chem. Phys. 152 154105 (2020);
          URL http://www.quantum-espresso.org", 
     in publications or presentations arising from this work. More details at
     http://www.quantum-espresso.org/quote

     Parallel version (MPI & OpenMP), running on      64 processor cores
     Number of MPI processes:                32
     Threads/MPI process:                     2

     MPI processes distributed on     1 nodes
     R & G space division:  proc/nbgrp/npool/nimage =      32
     230659 MiB available memory on the printing compute node when the environment starts
 
     Reading input from kpoints_118.pwi
Warning: card &CELL ignored
Warning: card / ignored

     Current dimensions of program PWSCF are:
     Max number of different atomic species (ntypx) = 10
     Max number of k-points (npk) =  40000
     Max angular momentum in pseudopotentials (lmaxx) =  4

     Subspace diagonalization in iterative solution of the eigenvalue problem:
     one sub-group per band group will be used
     scalapack distributed-memory algorithm (size of sub-group:  5*  5 procs)

 
     Parallelization info
     --------------------
     sticks:   dense  smooth     PW     G-vecs:    dense   smooth      PW
     Min          58      58     16                 1342     1342     198
     Max          59      59     17                 1345     1345     201
     Sum        1885    1885    517                42999    42999    6351
 
     Using Slab Decomposition
 

     Title: 
     IrO2 Unit Cell                                                             


     bravais-lattice index     =            6
     lattice parameter (alat)  =       8.5888  a.u.
     unit-cell volume          =     444.6868 (a.u.)^3
     number of atoms/cell      =            6
     number of atomic types    =            2
     number of electrons       =        58.00
     number of Kohn-Sham states=           70
     kinetic-energy cutoff     =      80.0000  Ry
     charge density cutoff     =     320.0000  Ry
     scf convergence threshold =      1.0E-09
     mixing beta               =       0.7000
     number of iterations used =            8  plain     mixing
     Exchange-correlation= PBE
                           (   1   4   3   4   0   0   0)
     Non magnetic calculation with spin-orbit


     celldm(1)=   8.588800  celldm(2)=   0.000000  celldm(3)=   0.701870
     celldm(4)=   0.000000  celldm(5)=   0.000000  celldm(6)=   0.000000

     crystal axes: (cart. coord. in units of alat)
               a(1) = (   1.000000   0.000000   0.000000 )  
               a(2) = (   0.000000   1.000000   0.000000 )  
               a(3) = (   0.000000   0.000000   0.701870 )  

     reciprocal axes: (cart. coord. in units 2 pi/alat)
               b(1) = (  1.000000  0.000000  0.000000 )  
               b(2) = (  0.000000  1.000000  0.000000 )  
               b(3) = (  0.000000  0.000000  1.424765 )  


     PseudoPot. # 1 for O  read from file:
     ../../XX_PSEUDO/O_ONCV_PBE_fr.upf
     MD5 check sum: 59c925217d3b58c6d762355590b68b09
     Pseudo is Norm-conserving, Zval =  6.0
     Generated using ONCVPSP code by D. R. Hamann
     Using radial grid of  936 points,  6 beta functions with: 
                l(1) =   0
                l(2) =   0
                l(3) =   1
                l(4) =   1
                l(5) =   1
                l(6) =   1

     PseudoPot. # 2 for Ir read from file:
     ../../XX_PSEUDO/Ir_ONCV_PBE_fr.upf
     MD5 check sum: 924e909c4146afa09f62ee3401806954
     Pseudo is Norm-conserving, Zval = 17.0
     Generated using ONCVPSP code by D. R. Hamann
     Using radial grid of 1310 points, 14 beta functions with: 
                l(1) =   0
                l(2) =   0
                l(3) =   1
                l(4) =   1
                l(5) =   1
                l(6) =   1
                l(7) =   2
                l(8) =   2
                l(9) =   2
               l(10) =   2
               l(11) =   3
               l(12) =   3
               l(13) =   3
               l(14) =   3

     atomic species   valence    mass     pseudopotential
        O              6.00    15.99900     O ( 1.00)
        Ir            17.00   192.21700     Ir( 1.00)

     16 Sym. Ops., with inversion, found ( 8 have fractional translation)


                                    s                        frac. trans.

      isym =  1     identity                                     

 cryst.   s( 1) = (     1          0          0      )
                  (     0          1          0      )
                  (     0          0          1      )

 cart.    s( 1) = (  1.0000000  0.0000000  0.0000000 )
                  (  0.0000000  1.0000000  0.0000000 )
                  (  0.0000000  0.0000000  1.0000000 )


      isym =  2     180 deg rotation - cart. axis [0,0,1]        

 cryst.   s( 2) = (    -1          0          0      )
                  (     0         -1          0      )
                  (     0          0          1      )

 cart.    s( 2) = ( -1.0000000  0.0000000  0.0000000 )
                  (  0.0000000 -1.0000000  0.0000000 )
                  (  0.0000000  0.0000000  1.0000000 )


      isym =  3     180 deg rotation - cart. axis [0,1,0]        

 cryst.   s( 3) = (    -1          0          0      )    f =(  0.5000000 )
                  (     0          1          0      )       ( -0.5000000 )
                  (     0          0         -1      )       (  0.5000000 )

 cart.    s( 3) = ( -1.0000000  0.0000000  0.0000000 )    f =(  0.5000000 )
                  (  0.0000000  1.0000000  0.0000000 )       ( -0.5000000 )
                  (  0.0000000  0.0000000 -1.0000000 )       (  0.3509351 )


      isym =  4     180 deg rotation - cart. axis [1,0,0]        

 cryst.   s( 4) = (     1          0          0      )    f =( -0.5000000 )
                  (     0         -1          0      )       (  0.5000000 )
                  (     0          0         -1      )       (  0.5000000 )

 cart.    s( 4) = (  1.0000000  0.0000000  0.0000000 )    f =( -0.5000000 )
                  (  0.0000000 -1.0000000  0.0000000 )       (  0.5000000 )
                  (  0.0000000  0.0000000 -1.0000000 )       (  0.3509351 )


      isym =  5     180 deg rotation - cart. axis [1,1,0]        

 cryst.   s( 5) = (     0          1          0      )
                  (     1          0          0      )
                  (     0          0         -1      )

 cart.    s( 5) = (  0.0000000  1.0000000  0.0000000 )
                  (  1.0000000  0.0000000  0.0000000 )
                  (  0.0000000  0.0000000 -1.0000000 )


      isym =  6     180 deg rotation - cart. axis [1,-1,0]       

 cryst.   s( 6) = (     0         -1          0      )
                  (    -1          0          0      )
                  (     0          0         -1      )

 cart.    s( 6) = (  0.0000000 -1.0000000  0.0000000 )
                  ( -1.0000000  0.0000000  0.0000000 )
                  (  0.0000000  0.0000000 -1.0000000 )


      isym =  7      90 deg rotation - cart. axis [0,0,-1]       

 cryst.   s( 7) = (     0         -1          0      )    f =( -0.5000000 )
                  (     1          0          0      )       (  0.5000000 )
                  (     0          0          1      )       ( -0.5000000 )

 cart.    s( 7) = (  0.0000000  1.0000000  0.0000000 )    f =( -0.5000000 )
                  ( -1.0000000  0.0000000  0.0000000 )       (  0.5000000 )
                  (  0.0000000  0.0000000  1.0000000 )       ( -0.3509351 )


      isym =  8      90 deg rotation - cart. axis [0,0,1]        

 cryst.   s( 8) = (     0          1          0      )    f =(  0.5000000 )
                  (    -1          0          0      )       ( -0.5000000 )
                  (     0          0          1      )       ( -0.5000000 )

 cart.    s( 8) = (  0.0000000 -1.0000000  0.0000000 )    f =(  0.5000000 )
                  (  1.0000000  0.0000000  0.0000000 )       ( -0.5000000 )
                  (  0.0000000  0.0000000  1.0000000 )       ( -0.3509351 )


      isym =  9     inversion                                    

 cryst.   s( 9) = (    -1          0          0      )
                  (     0         -1          0      )
                  (     0          0         -1      )

 cart.    s( 9) = ( -1.0000000  0.0000000  0.0000000 )
                  (  0.0000000 -1.0000000  0.0000000 )
                  (  0.0000000  0.0000000 -1.0000000 )


      isym = 10     inv. 180 deg rotation - cart. axis [0,0,1]   

 cryst.   s(10) = (     1          0          0      )
                  (     0          1          0      )
                  (     0          0         -1      )

 cart.    s(10) = (  1.0000000  0.0000000  0.0000000 )
                  (  0.0000000  1.0000000  0.0000000 )
                  (  0.0000000  0.0000000 -1.0000000 )


      isym = 11     inv. 180 deg rotation - cart. axis [0,1,0]   

 cryst.   s(11) = (     1          0          0      )    f =( -0.5000000 )
                  (     0         -1          0      )       (  0.5000000 )
                  (     0          0          1      )       ( -0.5000000 )

 cart.    s(11) = (  1.0000000  0.0000000  0.0000000 )    f =( -0.5000000 )
                  (  0.0000000 -1.0000000  0.0000000 )       (  0.5000000 )
                  (  0.0000000  0.0000000  1.0000000 )       ( -0.3509351 )


      isym = 12     inv. 180 deg rotation - cart. axis [1,0,0]   

 cryst.   s(12) = (    -1          0          0      )    f =(  0.5000000 )
                  (     0          1          0      )       ( -0.5000000 )
                  (     0          0          1      )       ( -0.5000000 )

 cart.    s(12) = ( -1.0000000  0.0000000  0.0000000 )    f =(  0.5000000 )
                  (  0.0000000  1.0000000  0.0000000 )       ( -0.5000000 )
                  (  0.0000000  0.0000000  1.0000000 )       ( -0.3509351 )


      isym = 13     inv. 180 deg rotation - cart. axis [1,1,0]   

 cryst.   s(13) = (     0         -1          0      )
                  (    -1          0          0      )
                  (     0          0          1      )

 cart.    s(13) = (  0.0000000 -1.0000000  0.0000000 )
                  ( -1.0000000  0.0000000  0.0000000 )
                  (  0.0000000  0.0000000  1.0000000 )


      isym = 14     inv. 180 deg rotation - cart. axis [1,-1,0]  

 cryst.   s(14) = (     0          1          0      )
                  (     1          0          0      )
                  (     0          0          1      )

 cart.    s(14) = (  0.0000000  1.0000000  0.0000000 )
                  (  1.0000000  0.0000000  0.0000000 )
                  (  0.0000000  0.0000000  1.0000000 )


      isym = 15     inv.  90 deg rotation - cart. axis [0,0,-1]  

 cryst.   s(15) = (     0          1          0      )    f =(  0.5000000 )
                  (    -1          0          0      )       ( -0.5000000 )
                  (     0          0         -1      )       (  0.5000000 )

 cart.    s(15) = (  0.0000000 -1.0000000  0.0000000 )    f =(  0.5000000 )
                  (  1.0000000  0.0000000  0.0000000 )       ( -0.5000000 )
                  (  0.0000000  0.0000000 -1.0000000 )       (  0.3509351 )


      isym = 16     inv.  90 deg rotation - cart. axis [0,0,1]   

 cryst.   s(16) = (     0         -1          0      )    f =( -0.5000000 )
                  (     1          0          0      )       (  0.5000000 )
                  (     0          0         -1      )       (  0.5000000 )

 cart.    s(16) = (  0.0000000  1.0000000  0.0000000 )    f =( -0.5000000 )
                  ( -1.0000000  0.0000000  0.0000000 )       (  0.5000000 )
                  (  0.0000000  0.0000000 -1.0000000 )       (  0.3509351 )


     double point group D_4h(4/mmm)
     there are 14 classes and  4 irreducible representations
     the character table:

       E     -E    2C4   -2C4   C2    2C2' 2C2'' i     -i    2S4   -2S4   s_h 
                               -C2   -2C2' -2C2'                         -s_h 
G_6+   2.00 -2.00  1.41 -1.41  0.00  0.00  0.00  2.00 -2.00  1.41 -1.41  0.00
G_7+   2.00 -2.00 -1.41  1.41  0.00  0.00  0.00  2.00 -2.00 -1.41  1.41  0.00
G_6-   2.00 -2.00  1.41 -1.41  0.00  0.00  0.00 -2.00  2.00 -1.41  1.41  0.00
G_7-   2.00 -2.00 -1.41  1.41  0.00  0.00  0.00 -2.00  2.00  1.41 -1.41  0.00

        2s_v  2s_d
       -2s_v -2s_d
G_6+   0.00  0.00
G_7+   0.00  0.00
G_6-   0.00  0.00
G_7-   0.00  0.00

     the symmetry operations in each class and the name of the first element:

     E             1
          identity                                               
     -E           -1
          identity E                                             
     2C4           7    8
           90 deg rotation - cart. axis [0,0,-1]                 
     -2C4         -7   -8
           90 deg rotation - cart. axis [0,0,-1] E               
      C2  -C2      2   -2
          180 deg rotation - cart. axis [0,0,1]                  
      2C2'-2C2'    3   -3    4   -4
          180 deg rotation - cart. axis [0,1,0]                  
     2C2''-2C2'    5   -5   -6    6
          180 deg rotation - cart. axis [1,1,0]                  
     i             9
          inversion                                              
     -i           -9
          inversion E                                            
     2S4          15   16
          inv.  90 deg rotation - cart. axis [0,0,-1]            
     -2S4        -15  -16
          inv.  90 deg rotation - cart. axis [0,0,-1] E          
      s_h -s_h    10  -10
          inv. 180 deg rotation - cart. axis [0,0,1]             
      2s_v-2s_v   11  -11   12  -12
          inv. 180 deg rotation - cart. axis [0,1,0]             
      2s_d-2s_d   13  -13  -14   14
          inv. 180 deg rotation - cart. axis [1,1,0]             

   Cartesian axes

     site n.     atom                  positions (alat units)
         1           Ir  tau(   1) = (   0.0000000   0.0000000   0.0000000  )
         2           Ir  tau(   2) = (   0.5000000   0.5000000   0.3509351  )
         3           O   tau(   3) = (   0.1916000   0.8084000   0.3509351  )
         4           O   tau(   4) = (   0.3084000   0.3084000   0.0000000  )
         5           O   tau(   5) = (   0.6916000   0.6916000   0.0000000  )
         6           O   tau(   6) = (   0.8084000   0.1916000   0.3509351  )

   Crystallographic axes

     site n.     atom                  positions (cryst. coord.)
         1           Ir  tau(   1) = (  0.0000000  0.0000000  0.0000000  )
         2           Ir  tau(   2) = (  0.5000000  0.5000000  0.5000000  )
         3           O   tau(   3) = (  0.1916000  0.8084000  0.5000000  )
         4           O   tau(   4) = (  0.3084000  0.3084000  0.0000000  )
         5           O   tau(   5) = (  0.6916000  0.6916000  0.0000000  )
         6           O   tau(   6) = (  0.8084000  0.1916000  0.5000000  )

     number of k points=     5  Methfessel-Paxton smearing, width (Ry)=  0.0050
                       cart. coord. in units 2pi/alat
        k(    1) = (   0.0000000   0.0000000   0.0000000), wk =   0.1250000
        k(    2) = (   0.0000000   0.0000000   0.1780956), wk =   0.2500000
        k(    3) = (   0.0000000   0.0000000   0.3561912), wk =   0.2500000
        k(    4) = (   0.0000000   0.0000000   0.5342868), wk =   0.2500000
        k(    5) = (   0.0000000   0.0000000  -0.7123824), wk =   0.1250000

                       cryst. coord.
        k(    1) = (   0.0000000   0.0000000   0.0000000), wk =   0.1250000
        k(    2) = (   0.0000000   0.0000000   0.1250000), wk =   0.2500000
        k(    3) = (   0.0000000   0.0000000   0.2500000), wk =   0.2500000
        k(    4) = (   0.0000000   0.0000000   0.3750000), wk =   0.2500000
        k(    5) = (   0.0000000   0.0000000  -0.5000000), wk =   0.1250000

     Dense  grid:    42999 G-vectors     FFT dimensions: (  50,  50,  36)

     Dynamical RAM for                 wfc:       0.36 MB

     Dynamical RAM for     wfc (w. buffer):       2.14 MB

     Dynamical RAM for           str. fact:       0.04 MB

     Dynamical RAM for           local pot:       0.00 MB

     Dynamical RAM for          nlocal pot:       0.46 MB

     Dynamical RAM for                qrad:      20.10 MB

     Dynamical RAM for          rho,v,vnew:       0.70 MB

     Dynamical RAM for               rhoin:       0.23 MB

     Dynamical RAM for            rho*nmix:       1.31 MB

     Dynamical RAM for           G-vectors:       0.09 MB

     Dynamical RAM for          h,s,v(r/c):       0.04 MB

     Dynamical RAM for          <psi|beta>:       0.38 MB

     Dynamical RAM for                 psi:       0.71 MB

     Dynamical RAM for                hpsi:       0.71 MB

     Dynamical RAM for      wfcinit/wfcrot:       0.67 MB

     Estimated static dynamical RAM per process >      24.13 MB

     Estimated max dynamical RAM per process >      27.29 MB

     Estimated total dynamical RAM >     873.33 MB

     Initial potential from superposition of free atoms

     starting charge      57.9997, renormalised to      58.0000
     Starting wfcs are   72 randomized atomic wfcs

     total cpu time spent up to now is        0.4 secs

     Self-consistent Calculation

     iteration #  1     ecut=    80.00 Ry     beta= 0.70
     Davidson diagonalization with overlap

---- Real-time Memory Report at c_bands before calling an iterative solver
            73 MiB given to the printing process from OS
             0 MiB allocation reported by mallinfo(arena+hblkhd)
        229290 MiB available memory on the node where the printing process lives
------------------
     ethr =  1.00E-02,  avg # of iterations =  2.0

     total cpu time spent up to now is        1.2 secs

     total energy              =    -552.34560150 Ry
     estimated scf accuracy    <       1.32339871 Ry

     iteration #  2     ecut=    80.00 Ry     beta= 0.70
     Davidson diagonalization with overlap

---- Real-time Memory Report at c_bands before calling an iterative solver
            79 MiB given to the printing process from OS
             0 MiB allocation reported by mallinfo(arena+hblkhd)
        229187 MiB available memory on the node where the printing process lives
------------------
     ethr =  2.28E-03,  avg # of iterations =  2.0

     total cpu time spent up to now is        2.2 secs

     total energy              =    -552.23946952 Ry
     estimated scf accuracy    <       4.29666650 Ry

     iteration #  3     ecut=    80.00 Ry     beta= 0.70
     Davidson diagonalization with overlap

---- Real-time Memory Report at c_bands before calling an iterative solver
            97 MiB given to the printing process from OS
             0 MiB allocation reported by mallinfo(arena+hblkhd)
        229087 MiB available memory on the node where the printing process lives
------------------
     ethr =  2.28E-03,  avg # of iterations =  2.0

     total cpu time spent up to now is        3.0 secs

     total energy              =    -553.04850310 Ry
     estimated scf accuracy    <       0.03832744 Ry

     iteration #  4     ecut=    80.00 Ry     beta= 0.70
     Davidson diagonalization with overlap

---- Real-time Memory Report at c_bands before calling an iterative solver
            97 MiB given to the printing process from OS
             0 MiB allocation reported by mallinfo(arena+hblkhd)
        229078 MiB available memory on the node where the printing process lives
------------------
     ethr =  6.61E-05,  avg # of iterations =  2.0

     total cpu time spent up to now is        3.9 secs

     total energy              =    -553.05196891 Ry
     estimated scf accuracy    <       0.00609200 Ry

     iteration #  5     ecut=    80.00 Ry     beta= 0.70
     Davidson diagonalization with overlap

---- Real-time Memory Report at c_bands before calling an iterative solver
            98 MiB given to the printing process from OS
             0 MiB allocation reported by mallinfo(arena+hblkhd)
        229075 MiB available memory on the node where the printing process lives
------------------
     ethr =  1.05E-05,  avg # of iterations =  2.0

     total cpu time spent up to now is        4.7 secs

     total energy              =    -553.05318445 Ry
     estimated scf accuracy    <       0.00042195 Ry

     iteration #  6     ecut=    80.00 Ry     beta= 0.70
     Davidson diagonalization with overlap

---- Real-time Memory Report at c_bands before calling an iterative solver
            98 MiB given to the printing process from OS
             0 MiB allocation reported by mallinfo(arena+hblkhd)
        229074 MiB available memory on the node where the printing process lives
------------------
     ethr =  7.28E-07,  avg # of iterations =  2.0

     total cpu time spent up to now is        5.4 secs

     total energy              =    -553.05324210 Ry
     estimated scf accuracy    <       0.00001019 Ry

     iteration #  7     ecut=    80.00 Ry     beta= 0.70
     Davidson diagonalization with overlap

---- Real-time Memory Report at c_bands before calling an iterative solver
            99 MiB given to the printing process from OS
             0 MiB allocation reported by mallinfo(arena+hblkhd)
        229072 MiB available memory on the node where the printing process lives
------------------
     ethr =  1.76E-08,  avg # of iterations =  2.0

     total cpu time spent up to now is        6.4 secs

     total energy              =    -553.05324518 Ry
     estimated scf accuracy    <       0.00000079 Ry

     iteration #  8     ecut=    80.00 Ry     beta= 0.70
     Davidson diagonalization with overlap

---- Real-time Memory Report at c_bands before calling an iterative solver
            99 MiB given to the printing process from OS
             0 MiB allocation reported by mallinfo(arena+hblkhd)
        229035 MiB available memory on the node where the printing process lives
------------------
     ethr =  1.37E-09,  avg # of iterations =  2.0

     total cpu time spent up to now is        7.2 secs

     total energy              =    -553.05324533 Ry
     estimated scf accuracy    <       0.00000001 Ry

     iteration #  9     ecut=    80.00 Ry     beta= 0.70
     Davidson diagonalization with overlap

---- Real-time Memory Report at c_bands before calling an iterative solver
            99 MiB given to the printing process from OS
             0 MiB allocation reported by mallinfo(arena+hblkhd)
        229031 MiB available memory on the node where the printing process lives
------------------
     ethr =  2.21E-11,  avg # of iterations =  2.0

     total cpu time spent up to now is        8.0 secs

     total energy              =    -553.05324534 Ry
     estimated scf accuracy    <          3.2E-09 Ry

     iteration # 10     ecut=    80.00 Ry     beta= 0.70
     Davidson diagonalization with overlap

---- Real-time Memory Report at c_bands before calling an iterative solver
            99 MiB given to the printing process from OS
             0 MiB allocation reported by mallinfo(arena+hblkhd)
        229025 MiB available memory on the node where the printing process lives
------------------
     ethr =  5.51E-12,  avg # of iterations =  2.0

     total cpu time spent up to now is        8.9 secs

     End of self-consistent calculation

          k = 0.0000 0.0000 0.0000 (  5409 PWs)   bands (ev):

   -79.5401 -79.5401 -79.5388 -79.5388 -46.3729 -46.3729 -46.3622 -46.3622
   -32.9317 -32.9317 -32.8891 -32.8891 -32.7469 -32.7469 -32.7285 -32.7285
    -6.9495  -6.9495  -5.7819  -5.7819  -4.8662  -4.8662  -4.6642  -4.6642
     4.3400   4.3400   4.5876   4.5876   6.0644   6.0644   6.1809   6.1809
     6.2837   6.2837   8.8819   8.8819   9.0668   9.0668   9.3265   9.3265
    10.4449  10.4449  10.9352  10.9352  11.0639  11.0639  11.1467  11.1467
    11.1899  11.1899  11.2388  11.2388  11.6157  11.6157  11.8094  11.8094
    11.9793  11.9793  14.5558  14.5558  15.0131  15.0131  17.7103  17.7103
    17.9332  17.9332  18.0619  18.0619  19.4977  19.4977

     occupation numbers 
     1.0000   1.0000   1.0000   1.0000   1.0000   1.0000   1.0000   1.0000
     1.0000   1.0000   1.0000   1.0000   1.0000   1.0000   1.0000   1.0000
     1.0000   1.0000   1.0000   1.0000   1.0000   1.0000   1.0000   1.0000
     1.0000   1.0000   1.0000   1.0000   1.0000   1.0000   1.0000   1.0000
     1.0000   1.0000   1.0000   1.0000   1.0000   1.0000   1.0000   1.0000
     1.0000   1.0000   1.0000   1.0000   1.0000   1.0000   1.0000   1.0000
     1.0000   1.0000   1.0000   1.0000   1.0000   1.0000   1.0000   1.0000
     1.0000   1.0000  -0.0000  -0.0000  -0.0000  -0.0000  -0.0000  -0.0000
    -0.0000  -0.0000  -0.0000  -0.0000  -0.0000  -0.0000

          k = 0.0000 0.0000 0.1781 (  5369 PWs)   bands (ev):

   -79.5397 -79.5397 -79.5385 -79.5385 -46.3740 -46.3740 -46.3642 -46.3642
   -32.9297 -32.9297 -32.8923 -32.8923 -32.7550 -32.7550 -32.7401 -32.7401
    -6.8077  -6.8077  -5.7090  -5.7090  -4.9324  -4.9324  -4.7530  -4.7530
     4.5478   4.5478   4.7352   4.7352   6.1905   6.1905   6.2696   6.2696
     6.4336   6.4336   8.3156   8.3156   9.1605   9.1605   9.4231   9.4231
     9.5942   9.5942  10.1840  10.1840  10.3113  10.3113  11.1979  11.1979
    11.6392  11.6392  11.6813  11.6813  11.7304  11.7304  12.3860  12.3860
    12.4462  12.4462  14.8685  14.8685  14.8850  14.8850  17.3385  17.3385
    17.6520  17.6520  18.3297  18.3297  19.2364  19.2364

     occupation numbers 
     1.0000   1.0000   1.0000   1.0000   1.0000   1.0000   1.0000   1.0000
     1.0000   1.0000   1.0000   1.0000   1.0000   1.0000   1.0000   1.0000
     1.0000   1.0000   1.0000   1.0000   1.0000   1.0000   1.0000   1.0000
     1.0000   1.0000   1.0000   1.0000   1.0000   1.0000   1.0000   1.0000
     1.0000   1.0000   1.0000   1.0000   1.0000   1.0000   1.0000   1.0000
     1.0000   1.0000   1.0000   1.0000   1.0000   1.0000   1.0000   1.0000
     1.0000   1.0000   1.0000   1.0000   1.0000   1.0000   1.0000   1.0000
     1.0000   1.0000  -0.0000  -0.0000  -0.0000  -0.0000  -0.0000  -0.0000
    -0.0000  -0.0000  -0.0000  -0.0000  -0.0000  -0.0000

          k = 0.0000 0.0000 0.3562 (  5381 PWs)   bands (ev):

   -79.5387 -79.5387 -79.5378 -79.5378 -46.3766 -46.3766 -46.3691 -46.3691
   -32.9259 -32.9259 -32.9022 -32.9022 -32.7727 -32.7727 -32.7664 -32.7664
    -6.4326  -6.4326  -5.5555  -5.5555  -5.0825  -5.0825  -4.9625  -4.9625
     5.1105   5.1105   5.1146   5.1146   6.5115   6.5115   6.5136   6.5136
     6.8806   6.8806   7.2951   7.2951   8.3390   8.3390   9.1677   9.1677
     9.3993   9.3993   9.5672   9.5672   9.8924   9.8924  10.5859  10.5859
    11.7809  11.7809  11.9535  11.9535  12.0779  12.0779  13.2224  13.2224
    13.2373  13.2373  14.4708  14.4708  15.5615  15.5615  16.6675  16.6675
    16.9532  16.9532  18.0043  18.0043  19.9266  19.9266

     occupation numbers 
     1.0000   1.0000   1.0000   1.0000   1.0000   1.0000   1.0000   1.0000
     1.0000   1.0000   1.0000   1.0000   1.0000   1.0000   1.0000   1.0000
     1.0000   1.0000   1.0000   1.0000   1.0000   1.0000   1.0000   1.0000
     1.0000   1.0000   1.0000   1.0000   1.0000   1.0000   1.0000   1.0000
     1.0000   1.0000   1.0000   1.0000   1.0000   1.0000   1.0000   1.0000
     1.0000   1.0000   1.0000   1.0000   1.0000   1.0000   1.0000   1.0000
     1.0000   1.0000   1.0000   1.0000   1.0000   1.0000   1.0000   1.0000
     1.0000   1.0000  -0.0000  -0.0000  -0.0000  -0.0000  -0.0000  -0.0000
    -0.0000  -0.0000  -0.0000  -0.0000  -0.0000  -0.0000

          k = 0.0000 0.0000 0.5343 (  5393 PWs)   bands (ev):

   -79.5377 -79.5377 -79.5372 -79.5372 -46.3787 -46.3787 -46.3746 -46.3746
   -32.9247 -32.9247 -32.9155 -32.9155 -32.7885 -32.7885 -32.7881 -32.7881
    -5.9650  -5.9650  -5.4786  -5.4786  -5.2146  -5.2146  -5.1698  -5.1698
     5.5117   5.5117   5.7749   5.7749   6.4973   6.4973   6.8960   6.8960
     6.9509   6.9509   7.4010   7.4010   7.6218   7.6218   8.5430   8.5430
     8.6869   8.6869   9.6057   9.6057   9.8674   9.8674  10.0757  10.0757
    11.7623  11.7623  12.0777  12.0777  12.4358  12.4358  13.5947  13.5947
    13.8669  13.8669  14.0963  14.0963  16.0148  16.0148  16.2357  16.2357
    16.5233  16.5233  17.0666  17.0666  21.4836  21.4836

     occupation numbers 
     1.0000   1.0000   1.0000   1.0000   1.0000   1.0000   1.0000   1.0000
     1.0000   1.0000   1.0000   1.0000   1.0000   1.0000   1.0000   1.0000
     1.0000   1.0000   1.0000   1.0000   1.0000   1.0000   1.0000   1.0000
     1.0000   1.0000   1.0000   1.0000   1.0000   1.0000   1.0000   1.0000
     1.0000   1.0000   1.0000   1.0000   1.0000   1.0000   1.0000   1.0000
     1.0000   1.0000   1.0000   1.0000   1.0000   1.0000   1.0000   1.0000
     1.0000   1.0000   1.0000   1.0000   1.0000   1.0000   1.0000   1.0000
     1.0000   1.0000   0.5056   0.5056  -0.0000  -0.0000  -0.0000  -0.0000
    -0.0000  -0.0000  -0.0000  -0.0000  -0.0000  -0.0000

          k = 0.0000 0.0000-0.7124 (  5314 PWs)   bands (ev):

   -79.5371 -79.5371 -79.5371 -79.5371 -46.3782 -46.3782 -46.3782 -46.3782
   -32.9237 -32.9237 -32.9237 -32.9237 -32.7949 -32.7949 -32.7949 -32.7949
    -5.6003  -5.6003  -5.6003  -5.6003  -5.2657  -5.2657  -5.2657  -5.2657
     5.7702   5.7702   5.7702   5.7702   6.7796   6.7796   6.7796   6.7796
     7.1470   7.1470   7.1470   7.1470   8.2743   8.2743   8.2743   8.2743
     8.5785   8.5785   8.5785   8.5785  10.0635  10.0635  10.0635  10.0635
    11.8501  11.8501  11.8501  11.8501  13.0530  13.0530  13.0530  13.0530
    14.1558  14.1558  14.1558  14.1558  16.1066  16.1066  16.1066  16.1066
    16.5549  16.5549  16.5549  16.5549  22.9865  22.9865

     occupation numbers 
     1.0000   1.0000   1.0000   1.0000   1.0000   1.0000   1.0000   1.0000
     1.0000   1.0000   1.0000   1.0000   1.0000   1.0000   1.0000   1.0000
     1.0000   1.0000   1.0000   1.0000   1.0000   1.0000   1.0000   1.0000
     1.0000   1.0000   1.0000   1.0000   1.0000   1.0000   1.0000   1.0000
     1.0000   1.0000   1.0000   1.0000   1.0000   1.0000   1.0000   1.0000
     1.0000   1.0000   1.0000   1.0000   1.0000   1.0000   1.0000   1.0000
     1.0000   1.0000   1.0000   1.0000   1.0000   1.0000   1.0000   1.0000
    -0.0056  -0.0056  -0.0056  -0.0056  -0.0000  -0.0000  -0.0000  -0.0000
    -0.0000  -0.0000  -0.0000  -0.0000  -0.0000  -0.0000

     the Fermi energy is    14.0967 ev

!    total energy              =    -553.05324534 Ry
     estimated scf accuracy    <          1.4E-10 Ry
     smearing contrib. (-TS)   =      -0.00026809 Ry
     internal energy E=F+TS    =    -553.05297725 Ry

     The total energy is F=E-TS. E is the sum of the following terms:
     one-electron contribution =    -190.87000685 Ry
     hartree contribution      =     122.74339020 Ry
     xc contribution           =     -69.94035008 Ry
     ewald contribution        =    -414.98601052 Ry

     convergence has been achieved in  10 iterations

     Forces acting on atoms (cartesian axes, Ry/au):

     atom    1 type  2   force =     0.00000000    0.00000000    0.00000000
     atom    2 type  2   force =     0.00000000    0.00000000    0.00000000
     atom    3 type  1   force =     0.00675424   -0.00675424   -0.00000000
     atom    4 type  1   force =    -0.00675424   -0.00675424    0.00000000
     atom    5 type  1   force =     0.00675424    0.00675424    0.00000000
     atom    6 type  1   force =    -0.00675424    0.00675424   -0.00000000
     The non-local contrib.  to forces
     atom    1 type  2   force =     0.00000000    0.00000000    0.00000000
     atom    2 type  2   force =     0.00000000    0.00000000    0.00000000
     atom    3 type  1   force =     0.03025648   -0.03025648    0.00000000
     atom    4 type  1   force =    -0.03025648   -0.03025648   -0.00000000
     atom    5 type  1   force =     0.03025648    0.03025648   -0.00000000
     atom    6 type  1   force =    -0.03025648    0.03025648    0.00000000
     The ionic contribution  to forces
     atom    1 type  2   force =    -0.00000000   -0.00000000    0.00000000
     atom    2 type  2   force =     0.00000000    0.00000000   -0.00000000
     atom    3 type  1   force =     1.42937233   -1.42937233    0.00000000
     atom    4 type  1   force =    -1.42937233   -1.42937233   -0.00000000
     atom    5 type  1   force =     1.42937233    1.42937233   -0.00000000
     atom    6 type  1   force =    -1.42937233    1.42937233    0.00000000
     The local contribution  to forces
     atom    1 type  2   force =     0.00000000    0.00000000   -0.00000000
     atom    2 type  2   force =     0.00000000    0.00000000    0.00000000
     atom    3 type  1   force =    -1.45287457    1.45287457    0.00000000
     atom    4 type  1   force =     1.45287457    1.45287457   -0.00000000
     atom    5 type  1   force =    -1.45287457   -1.45287457   -0.00000000
     atom    6 type  1   force =     1.45287457   -1.45287457    0.00000000
     The core correction contribution to forces
     atom    1 type  2   force =     0.00000000    0.00000000    0.00000000
     atom    2 type  2   force =     0.00000000    0.00000000    0.00000000
     atom    3 type  1   force =     0.00000000    0.00000000    0.00000000
     atom    4 type  1   force =     0.00000000    0.00000000    0.00000000
     atom    5 type  1   force =     0.00000000    0.00000000    0.00000000
     atom    6 type  1   force =     0.00000000    0.00000000    0.00000000
     The Hubbard contrib.    to forces
     atom    1 type  2   force =     0.00000000    0.00000000    0.00000000
     atom    2 type  2   force =     0.00000000    0.00000000    0.00000000
     atom    3 type  1   force =     0.00000000    0.00000000    0.00000000
     atom    4 type  1   force =     0.00000000    0.00000000    0.00000000
     atom    5 type  1   force =     0.00000000    0.00000000    0.00000000
     atom    6 type  1   force =     0.00000000    0.00000000    0.00000000
     The SCF correction term to forces
     atom    1 type  2   force =     0.00000000   -0.00000000   -0.00000000
     atom    2 type  2   force =    -0.00000000   -0.00000000   -0.00000000
     atom    3 type  1   force =    -0.00000000    0.00000000    0.00000000
     atom    4 type  1   force =     0.00000000    0.00000000    0.00000000
     atom    5 type  1   force =    -0.00000000   -0.00000000    0.00000000
     atom    6 type  1   force =     0.00000000   -0.00000000    0.00000000

     Total force =     0.019104     Total SCF correction =     0.000000


     Computing stress (Cartesian axis) and pressure

          total   stress  (Ry/bohr**3)                   (kbar)     P=      -38.15
   0.00011666   0.00000000   0.00000000           17.16        0.00        0.00
   0.00000000   0.00011666   0.00000000            0.00       17.16        0.00
   0.00000000   0.00000000  -0.00101138            0.00        0.00     -148.78

     kinetic stress (kbar)  48527.80      0.00      0.00
                                0.00  48527.80      0.00
                                0.00      0.00  47579.24

     local   stress (kbar) -12558.00      0.00     -0.00
                                0.00 -12558.00     -0.00
                               -0.00     -0.00 -44657.04

     nonloc. stress (kbar)  14393.41      0.00      0.00
                                0.00  14393.41      0.00
                                0.00      0.00  14761.07

     hartree stress (kbar)   9582.10      0.00     -0.00
                                0.00   9582.10      0.00
                               -0.00      0.00  21440.05

     exc-cor stress (kbar)  -7291.93      0.00     -0.00
                                0.00  -7291.93     -0.00
                               -0.00     -0.00  -7264.64

     corecor stress (kbar)      0.00      0.00      0.00
                                0.00      0.00      0.00
                                0.00      0.00      0.00

     ewald   stress (kbar) -52636.21     -0.00     -0.00
                               -0.00 -52636.21     -0.00
                               -0.00     -0.00 -32007.45

     hubbard stress (kbar)      0.00      0.00      0.00
                                0.00      0.00      0.00
                                0.00      0.00      0.00

     DFT-D   stress (kbar)      0.00      0.00      0.00
                                0.00      0.00      0.00
                                0.00      0.00      0.00

     XDM     stress (kbar)      0.00      0.00      0.00
                                0.00      0.00      0.00
                                0.00      0.00      0.00

     dft-nl  stress (kbar)      0.00      0.00      0.00
                                0.00      0.00      0.00
                                0.00      0.00      0.00

     TS-vdW  stress (kbar)      0.00      0.00      0.00
                                0.00      0.00      0.00
                                0.00      0.00      0.00


                                0.00      0.00      0.00
                                0.00      0.00      0.00


                                0.00      0.00      0.00


     Writing all to output data dir tmp/espresso.save/
 
     init_run     :      0.57s CPU      0.32s WALL (       1 calls)
     electrons    :     16.52s CPU      8.50s WALL (       1 calls)
     forces       :      0.86s CPU      0.44s WALL (       1 calls)
     stress       :      1.26s CPU      0.63s WALL (       1 calls)

     Called by init_run:
     wfcinit      :      0.50s CPU      0.26s WALL (       1 calls)
     wfcinit:atom :      0.00s CPU      0.00s WALL (       5 calls)
     wfcinit:wfcr :      0.49s CPU      0.25s WALL (       5 calls)
     potinit      :      0.02s CPU      0.01s WALL (       1 calls)
     hinit0       :      0.03s CPU      0.03s WALL (       1 calls)

     Called by electrons:
     c_bands      :     14.98s CPU      7.69s WALL (      10 calls)
     sum_band     :      1.41s CPU      0.73s WALL (      10 calls)
     v_of_rho     :      0.05s CPU      0.03s WALL (      11 calls)
     v_h          :      0.00s CPU      0.00s WALL (      11 calls)
     v_xc         :      0.04s CPU      0.02s WALL (      11 calls)
     mix_rho      :      0.05s CPU      0.03s WALL (      10 calls)

     Called by c_bands:
     init_us_2    :      0.05s CPU      0.03s WALL (     115 calls)
     init_us_2:cp :      0.05s CPU      0.03s WALL (     115 calls)
     cegterg      :     13.79s CPU      7.08s WALL (      50 calls)

     Called by sum_band:
     sum_band:wei :      0.01s CPU      0.01s WALL (      10 calls)
     sum_band:loo :      1.38s CPU      0.71s WALL (      10 calls)
     sum_band:buf :      0.01s CPU      0.00s WALL (      50 calls)
     sum_band:ini :      0.02s CPU      0.01s WALL (      50 calls)

     Called by *egterg:
     cdiaghg      :      1.90s CPU      0.97s WALL (     150 calls)
     cegterg:over :      0.85s CPU      0.43s WALL (     100 calls)
     cegterg:upda :      0.67s CPU      0.34s WALL (     100 calls)
     cegterg:last :      1.20s CPU      0.61s WALL (     100 calls)
     cdiaghg:chol :      0.09s CPU      0.05s WALL (     150 calls)
     cdiaghg:inve :      0.01s CPU      0.01s WALL (     150 calls)
     cdiaghg:para :      0.20s CPU      0.10s WALL (     300 calls)
     h_psi        :      9.29s CPU      4.79s WALL (     155 calls)
     g_psi        :      0.01s CPU      0.01s WALL (     100 calls)

     Called by h_psi:
     h_psi:calbec :      1.13s CPU      0.59s WALL (     155 calls)
     vloc_psi     :      6.52s CPU      3.36s WALL (     155 calls)
     add_vuspsi   :      1.62s CPU      0.83s WALL (     155 calls)

     General routines
     calbec       :      1.43s CPU      0.74s WALL (     180 calls)
     fft          :      0.06s CPU      0.03s WALL (     150 calls)
     ffts         :      0.01s CPU      0.01s WALL (      40 calls)
     fftw         :      7.38s CPU      3.81s WALL (   42532 calls)
 
     Parallel routines
 
     PWSCF        :     20.19s CPU     10.92s WALL

 
   This run was terminated on:  10:52:57  10Apr2022            

=------------------------------------------------------------------------------=
   JOB DONE.
=------------------------------------------------------------------------------=
