
     Program PWSCF v.7.0 starts on 10Apr2022 at 11:13:49 

     This program is part of the open-source Quantum ESPRESSO suite
     for quantum simulation of materials; please cite
         "P. Giannozzi et al., J. Phys.:Condens. Matter 21 395502 (2009);
         "P. Giannozzi et al., J. Phys.:Condens. Matter 29 465901 (2017);
         "P. Giannozzi et al., J. Chem. Phys. 152 154105 (2020);
          URL http://www.quantum-espresso.org", 
     in publications or presentations arising from this work. More details at
     http://www.quantum-espresso.org/quote

     Parallel version (MPI & OpenMP), running on      64 processor cores
     Number of MPI processes:                32
     Threads/MPI process:                     2

     MPI processes distributed on     1 nodes
     R & G space division:  proc/nbgrp/npool/nimage =      32
     230415 MiB available memory on the printing compute node when the environment starts
 
     Reading input from kpoints_449.pwi
Warning: card &CELL ignored
Warning: card / ignored

     Current dimensions of program PWSCF are:
     Max number of different atomic species (ntypx) = 10
     Max number of k-points (npk) =  40000
     Max angular momentum in pseudopotentials (lmaxx) =  4

     Subspace diagonalization in iterative solution of the eigenvalue problem:
     one sub-group per band group will be used
     scalapack distributed-memory algorithm (size of sub-group:  5*  5 procs)

 
     Parallelization info
     --------------------
     sticks:   dense  smooth     PW     G-vecs:    dense   smooth      PW
     Min          58      58     17                 1342     1342     210
     Max          59      59     19                 1345     1345     212
     Sum        1885    1885    553                42999    42999    6747
 
     Using Slab Decomposition
 

     Title: 
     IrO2 Unit Cell                                                             


     bravais-lattice index     =            6
     lattice parameter (alat)  =       8.5888  a.u.
     unit-cell volume          =     444.6868 (a.u.)^3
     number of atoms/cell      =            6
     number of atomic types    =            2
     number of electrons       =        58.00
     number of Kohn-Sham states=           70
     kinetic-energy cutoff     =      80.0000  Ry
     charge density cutoff     =     320.0000  Ry
     scf convergence threshold =      1.0E-09
     mixing beta               =       0.7000
     number of iterations used =            8  plain     mixing
     Exchange-correlation= PBE
                           (   1   4   3   4   0   0   0)
     Non magnetic calculation with spin-orbit


     celldm(1)=   8.588800  celldm(2)=   0.000000  celldm(3)=   0.701870
     celldm(4)=   0.000000  celldm(5)=   0.000000  celldm(6)=   0.000000

     crystal axes: (cart. coord. in units of alat)
               a(1) = (   1.000000   0.000000   0.000000 )  
               a(2) = (   0.000000   1.000000   0.000000 )  
               a(3) = (   0.000000   0.000000   0.701870 )  

     reciprocal axes: (cart. coord. in units 2 pi/alat)
               b(1) = (  1.000000  0.000000  0.000000 )  
               b(2) = (  0.000000  1.000000  0.000000 )  
               b(3) = (  0.000000  0.000000  1.424765 )  


     PseudoPot. # 1 for O  read from file:
     ../../XX_PSEUDO/O_ONCV_PBE_fr.upf
     MD5 check sum: 59c925217d3b58c6d762355590b68b09
     Pseudo is Norm-conserving, Zval =  6.0
     Generated using ONCVPSP code by D. R. Hamann
     Using radial grid of  936 points,  6 beta functions with: 
                l(1) =   0
                l(2) =   0
                l(3) =   1
                l(4) =   1
                l(5) =   1
                l(6) =   1

     PseudoPot. # 2 for Ir read from file:
     ../../XX_PSEUDO/Ir_ONCV_PBE_fr.upf
     MD5 check sum: 924e909c4146afa09f62ee3401806954
     Pseudo is Norm-conserving, Zval = 17.0
     Generated using ONCVPSP code by D. R. Hamann
     Using radial grid of 1310 points, 14 beta functions with: 
                l(1) =   0
                l(2) =   0
                l(3) =   1
                l(4) =   1
                l(5) =   1
                l(6) =   1
                l(7) =   2
                l(8) =   2
                l(9) =   2
               l(10) =   2
               l(11) =   3
               l(12) =   3
               l(13) =   3
               l(14) =   3

     atomic species   valence    mass     pseudopotential
        O              6.00    15.99900     O ( 1.00)
        Ir            17.00   192.21700     Ir( 1.00)

     16 Sym. Ops., with inversion, found ( 8 have fractional translation)


                                    s                        frac. trans.

      isym =  1     identity                                     

 cryst.   s( 1) = (     1          0          0      )
                  (     0          1          0      )
                  (     0          0          1      )

 cart.    s( 1) = (  1.0000000  0.0000000  0.0000000 )
                  (  0.0000000  1.0000000  0.0000000 )
                  (  0.0000000  0.0000000  1.0000000 )


      isym =  2     180 deg rotation - cart. axis [0,0,1]        

 cryst.   s( 2) = (    -1          0          0      )
                  (     0         -1          0      )
                  (     0          0          1      )

 cart.    s( 2) = ( -1.0000000  0.0000000  0.0000000 )
                  (  0.0000000 -1.0000000  0.0000000 )
                  (  0.0000000  0.0000000  1.0000000 )


      isym =  3     180 deg rotation - cart. axis [0,1,0]        

 cryst.   s( 3) = (    -1          0          0      )    f =(  0.5000000 )
                  (     0          1          0      )       ( -0.5000000 )
                  (     0          0         -1      )       (  0.5000000 )

 cart.    s( 3) = ( -1.0000000  0.0000000  0.0000000 )    f =(  0.5000000 )
                  (  0.0000000  1.0000000  0.0000000 )       ( -0.5000000 )
                  (  0.0000000  0.0000000 -1.0000000 )       (  0.3509351 )


      isym =  4     180 deg rotation - cart. axis [1,0,0]        

 cryst.   s( 4) = (     1          0          0      )    f =( -0.5000000 )
                  (     0         -1          0      )       (  0.5000000 )
                  (     0          0         -1      )       (  0.5000000 )

 cart.    s( 4) = (  1.0000000  0.0000000  0.0000000 )    f =( -0.5000000 )
                  (  0.0000000 -1.0000000  0.0000000 )       (  0.5000000 )
                  (  0.0000000  0.0000000 -1.0000000 )       (  0.3509351 )


      isym =  5     180 deg rotation - cart. axis [1,1,0]        

 cryst.   s( 5) = (     0          1          0      )
                  (     1          0          0      )
                  (     0          0         -1      )

 cart.    s( 5) = (  0.0000000  1.0000000  0.0000000 )
                  (  1.0000000  0.0000000  0.0000000 )
                  (  0.0000000  0.0000000 -1.0000000 )


      isym =  6     180 deg rotation - cart. axis [1,-1,0]       

 cryst.   s( 6) = (     0         -1          0      )
                  (    -1          0          0      )
                  (     0          0         -1      )

 cart.    s( 6) = (  0.0000000 -1.0000000  0.0000000 )
                  ( -1.0000000  0.0000000  0.0000000 )
                  (  0.0000000  0.0000000 -1.0000000 )


      isym =  7      90 deg rotation - cart. axis [0,0,-1]       

 cryst.   s( 7) = (     0         -1          0      )    f =( -0.5000000 )
                  (     1          0          0      )       (  0.5000000 )
                  (     0          0          1      )       ( -0.5000000 )

 cart.    s( 7) = (  0.0000000  1.0000000  0.0000000 )    f =( -0.5000000 )
                  ( -1.0000000  0.0000000  0.0000000 )       (  0.5000000 )
                  (  0.0000000  0.0000000  1.0000000 )       ( -0.3509351 )


      isym =  8      90 deg rotation - cart. axis [0,0,1]        

 cryst.   s( 8) = (     0          1          0      )    f =(  0.5000000 )
                  (    -1          0          0      )       ( -0.5000000 )
                  (     0          0          1      )       ( -0.5000000 )

 cart.    s( 8) = (  0.0000000 -1.0000000  0.0000000 )    f =(  0.5000000 )
                  (  1.0000000  0.0000000  0.0000000 )       ( -0.5000000 )
                  (  0.0000000  0.0000000  1.0000000 )       ( -0.3509351 )


      isym =  9     inversion                                    

 cryst.   s( 9) = (    -1          0          0      )
                  (     0         -1          0      )
                  (     0          0         -1      )

 cart.    s( 9) = ( -1.0000000  0.0000000  0.0000000 )
                  (  0.0000000 -1.0000000  0.0000000 )
                  (  0.0000000  0.0000000 -1.0000000 )


      isym = 10     inv. 180 deg rotation - cart. axis [0,0,1]   

 cryst.   s(10) = (     1          0          0      )
                  (     0          1          0      )
                  (     0          0         -1      )

 cart.    s(10) = (  1.0000000  0.0000000  0.0000000 )
                  (  0.0000000  1.0000000  0.0000000 )
                  (  0.0000000  0.0000000 -1.0000000 )


      isym = 11     inv. 180 deg rotation - cart. axis [0,1,0]   

 cryst.   s(11) = (     1          0          0      )    f =( -0.5000000 )
                  (     0         -1          0      )       (  0.5000000 )
                  (     0          0          1      )       ( -0.5000000 )

 cart.    s(11) = (  1.0000000  0.0000000  0.0000000 )    f =( -0.5000000 )
                  (  0.0000000 -1.0000000  0.0000000 )       (  0.5000000 )
                  (  0.0000000  0.0000000  1.0000000 )       ( -0.3509351 )


      isym = 12     inv. 180 deg rotation - cart. axis [1,0,0]   

 cryst.   s(12) = (    -1          0          0      )    f =(  0.5000000 )
                  (     0          1          0      )       ( -0.5000000 )
                  (     0          0          1      )       ( -0.5000000 )

 cart.    s(12) = ( -1.0000000  0.0000000  0.0000000 )    f =(  0.5000000 )
                  (  0.0000000  1.0000000  0.0000000 )       ( -0.5000000 )
                  (  0.0000000  0.0000000  1.0000000 )       ( -0.3509351 )


      isym = 13     inv. 180 deg rotation - cart. axis [1,1,0]   

 cryst.   s(13) = (     0         -1          0      )
                  (    -1          0          0      )
                  (     0          0          1      )

 cart.    s(13) = (  0.0000000 -1.0000000  0.0000000 )
                  ( -1.0000000  0.0000000  0.0000000 )
                  (  0.0000000  0.0000000  1.0000000 )


      isym = 14     inv. 180 deg rotation - cart. axis [1,-1,0]  

 cryst.   s(14) = (     0          1          0      )
                  (     1          0          0      )
                  (     0          0          1      )

 cart.    s(14) = (  0.0000000  1.0000000  0.0000000 )
                  (  1.0000000  0.0000000  0.0000000 )
                  (  0.0000000  0.0000000  1.0000000 )


      isym = 15     inv.  90 deg rotation - cart. axis [0,0,-1]  

 cryst.   s(15) = (     0          1          0      )    f =(  0.5000000 )
                  (    -1          0          0      )       ( -0.5000000 )
                  (     0          0         -1      )       (  0.5000000 )

 cart.    s(15) = (  0.0000000 -1.0000000  0.0000000 )    f =(  0.5000000 )
                  (  1.0000000  0.0000000  0.0000000 )       ( -0.5000000 )
                  (  0.0000000  0.0000000 -1.0000000 )       (  0.3509351 )


      isym = 16     inv.  90 deg rotation - cart. axis [0,0,1]   

 cryst.   s(16) = (     0         -1          0      )    f =( -0.5000000 )
                  (     1          0          0      )       (  0.5000000 )
                  (     0          0         -1      )       (  0.5000000 )

 cart.    s(16) = (  0.0000000  1.0000000  0.0000000 )    f =( -0.5000000 )
                  ( -1.0000000  0.0000000  0.0000000 )       (  0.5000000 )
                  (  0.0000000  0.0000000 -1.0000000 )       (  0.3509351 )


     double point group D_4h(4/mmm)
     there are 14 classes and  4 irreducible representations
     the character table:

       E     -E    2C4   -2C4   C2    2C2' 2C2'' i     -i    2S4   -2S4   s_h 
                               -C2   -2C2' -2C2'                         -s_h 
G_6+   2.00 -2.00  1.41 -1.41  0.00  0.00  0.00  2.00 -2.00  1.41 -1.41  0.00
G_7+   2.00 -2.00 -1.41  1.41  0.00  0.00  0.00  2.00 -2.00 -1.41  1.41  0.00
G_6-   2.00 -2.00  1.41 -1.41  0.00  0.00  0.00 -2.00  2.00 -1.41  1.41  0.00
G_7-   2.00 -2.00 -1.41  1.41  0.00  0.00  0.00 -2.00  2.00  1.41 -1.41  0.00

        2s_v  2s_d
       -2s_v -2s_d
G_6+   0.00  0.00
G_7+   0.00  0.00
G_6-   0.00  0.00
G_7-   0.00  0.00

     the symmetry operations in each class and the name of the first element:

     E             1
          identity                                               
     -E           -1
          identity E                                             
     2C4           7    8
           90 deg rotation - cart. axis [0,0,-1]                 
     -2C4         -7   -8
           90 deg rotation - cart. axis [0,0,-1] E               
      C2  -C2      2   -2
          180 deg rotation - cart. axis [0,0,1]                  
      2C2'-2C2'    3   -3    4   -4
          180 deg rotation - cart. axis [0,1,0]                  
     2C2''-2C2'    5   -5   -6    6
          180 deg rotation - cart. axis [1,1,0]                  
     i             9
          inversion                                              
     -i           -9
          inversion E                                            
     2S4          15   16
          inv.  90 deg rotation - cart. axis [0,0,-1]            
     -2S4        -15  -16
          inv.  90 deg rotation - cart. axis [0,0,-1] E          
      s_h -s_h    10  -10
          inv. 180 deg rotation - cart. axis [0,0,1]             
      2s_v-2s_v   11  -11   12  -12
          inv. 180 deg rotation - cart. axis [0,1,0]             
      2s_d-2s_d   13  -13  -14   14
          inv. 180 deg rotation - cart. axis [1,1,0]             

   Cartesian axes

     site n.     atom                  positions (alat units)
         1           Ir  tau(   1) = (   0.0000000   0.0000000   0.0000000  )
         2           Ir  tau(   2) = (   0.5000000   0.5000000   0.3509351  )
         3           O   tau(   3) = (   0.1916000   0.8084000   0.3509351  )
         4           O   tau(   4) = (   0.3084000   0.3084000   0.0000000  )
         5           O   tau(   5) = (   0.6916000   0.6916000   0.0000000  )
         6           O   tau(   6) = (   0.8084000   0.1916000   0.3509351  )

   Crystallographic axes

     site n.     atom                  positions (cryst. coord.)
         1           Ir  tau(   1) = (  0.0000000  0.0000000  0.0000000  )
         2           Ir  tau(   2) = (  0.5000000  0.5000000  0.5000000  )
         3           O   tau(   3) = (  0.1916000  0.8084000  0.5000000  )
         4           O   tau(   4) = (  0.3084000  0.3084000  0.0000000  )
         5           O   tau(   5) = (  0.6916000  0.6916000  0.0000000  )
         6           O   tau(   6) = (  0.8084000  0.1916000  0.5000000  )

     number of k points=    30  Methfessel-Paxton smearing, width (Ry)=  0.0050
                       cart. coord. in units 2pi/alat
        k(    1) = (   0.0000000   0.0000000   0.0000000), wk =   0.0069444
        k(    2) = (   0.0000000   0.0000000   0.1583072), wk =   0.0138889
        k(    3) = (   0.0000000   0.0000000   0.3166144), wk =   0.0138889
        k(    4) = (   0.0000000   0.0000000   0.4749216), wk =   0.0138889
        k(    5) = (   0.0000000   0.0000000   0.6332288), wk =   0.0138889
        k(    6) = (   0.0000000   0.2500000   0.0000000), wk =   0.0277778
        k(    7) = (   0.0000000   0.2500000   0.1583072), wk =   0.0555556
        k(    8) = (   0.0000000   0.2500000   0.3166144), wk =   0.0555556
        k(    9) = (   0.0000000   0.2500000   0.4749216), wk =   0.0555556
        k(   10) = (   0.0000000   0.2500000   0.6332288), wk =   0.0555556
        k(   11) = (   0.0000000  -0.5000000   0.0000000), wk =   0.0138889
        k(   12) = (   0.0000000  -0.5000000   0.1583072), wk =   0.0277778
        k(   13) = (   0.0000000  -0.5000000   0.3166144), wk =   0.0277778
        k(   14) = (   0.0000000  -0.5000000   0.4749216), wk =   0.0277778
        k(   15) = (   0.0000000  -0.5000000   0.6332288), wk =   0.0277778
        k(   16) = (   0.2500000   0.2500000   0.0000000), wk =   0.0277778
        k(   17) = (   0.2500000   0.2500000   0.1583072), wk =   0.0555556
        k(   18) = (   0.2500000   0.2500000   0.3166144), wk =   0.0555556
        k(   19) = (   0.2500000   0.2500000   0.4749216), wk =   0.0555556
        k(   20) = (   0.2500000   0.2500000   0.6332288), wk =   0.0555556
        k(   21) = (   0.2500000  -0.5000000   0.0000000), wk =   0.0277778
        k(   22) = (   0.2500000  -0.5000000   0.1583072), wk =   0.0555556
        k(   23) = (   0.2500000  -0.5000000   0.3166144), wk =   0.0555556
        k(   24) = (   0.2500000  -0.5000000   0.4749216), wk =   0.0555556
        k(   25) = (   0.2500000  -0.5000000   0.6332288), wk =   0.0555556
        k(   26) = (  -0.5000000  -0.5000000   0.0000000), wk =   0.0069444
        k(   27) = (  -0.5000000  -0.5000000   0.1583072), wk =   0.0138889
        k(   28) = (  -0.5000000  -0.5000000   0.3166144), wk =   0.0138889
        k(   29) = (  -0.5000000  -0.5000000   0.4749216), wk =   0.0138889
        k(   30) = (  -0.5000000  -0.5000000   0.6332288), wk =   0.0138889

                       cryst. coord.
        k(    1) = (   0.0000000   0.0000000   0.0000000), wk =   0.0069444
        k(    2) = (   0.0000000   0.0000000   0.1111111), wk =   0.0138889
        k(    3) = (   0.0000000   0.0000000   0.2222222), wk =   0.0138889
        k(    4) = (   0.0000000   0.0000000   0.3333333), wk =   0.0138889
        k(    5) = (   0.0000000   0.0000000   0.4444444), wk =   0.0138889
        k(    6) = (   0.0000000   0.2500000   0.0000000), wk =   0.0277778
        k(    7) = (   0.0000000   0.2500000   0.1111111), wk =   0.0555556
        k(    8) = (   0.0000000   0.2500000   0.2222222), wk =   0.0555556
        k(    9) = (   0.0000000   0.2500000   0.3333333), wk =   0.0555556
        k(   10) = (   0.0000000   0.2500000   0.4444444), wk =   0.0555556
        k(   11) = (   0.0000000  -0.5000000   0.0000000), wk =   0.0138889
        k(   12) = (   0.0000000  -0.5000000   0.1111111), wk =   0.0277778
        k(   13) = (   0.0000000  -0.5000000   0.2222222), wk =   0.0277778
        k(   14) = (   0.0000000  -0.5000000   0.3333333), wk =   0.0277778
        k(   15) = (   0.0000000  -0.5000000   0.4444444), wk =   0.0277778
        k(   16) = (   0.2500000   0.2500000   0.0000000), wk =   0.0277778
        k(   17) = (   0.2500000   0.2500000   0.1111111), wk =   0.0555556
        k(   18) = (   0.2500000   0.2500000   0.2222222), wk =   0.0555556
        k(   19) = (   0.2500000   0.2500000   0.3333333), wk =   0.0555556
        k(   20) = (   0.2500000   0.2500000   0.4444444), wk =   0.0555556
        k(   21) = (   0.2500000  -0.5000000   0.0000000), wk =   0.0277778
        k(   22) = (   0.2500000  -0.5000000   0.1111111), wk =   0.0555556
        k(   23) = (   0.2500000  -0.5000000   0.2222222), wk =   0.0555556
        k(   24) = (   0.2500000  -0.5000000   0.3333333), wk =   0.0555556
        k(   25) = (   0.2500000  -0.5000000   0.4444444), wk =   0.0555556
        k(   26) = (  -0.5000000  -0.5000000   0.0000000), wk =   0.0069444
        k(   27) = (  -0.5000000  -0.5000000   0.1111111), wk =   0.0138889
        k(   28) = (  -0.5000000  -0.5000000   0.2222222), wk =   0.0138889
        k(   29) = (  -0.5000000  -0.5000000   0.3333333), wk =   0.0138889
        k(   30) = (  -0.5000000  -0.5000000   0.4444444), wk =   0.0138889

     Dense  grid:    42999 G-vectors     FFT dimensions: (  50,  50,  36)

     Dynamical RAM for                 wfc:       0.36 MB

     Dynamical RAM for     wfc (w. buffer):      11.06 MB

     Dynamical RAM for           str. fact:       0.04 MB

     Dynamical RAM for           local pot:       0.00 MB

     Dynamical RAM for          nlocal pot:       0.46 MB

     Dynamical RAM for                qrad:      20.10 MB

     Dynamical RAM for          rho,v,vnew:       0.70 MB

     Dynamical RAM for               rhoin:       0.23 MB

     Dynamical RAM for            rho*nmix:       1.31 MB

     Dynamical RAM for           G-vectors:       0.09 MB

     Dynamical RAM for          h,s,v(r/c):       0.04 MB

     Dynamical RAM for          <psi|beta>:       0.38 MB

     Dynamical RAM for                 psi:       0.71 MB

     Dynamical RAM for                hpsi:       0.71 MB

     Dynamical RAM for      wfcinit/wfcrot:       0.67 MB

     Estimated static dynamical RAM per process >      33.05 MB

     Estimated max dynamical RAM per process >      36.21 MB

     Estimated total dynamical RAM >       1.13 GB

     Initial potential from superposition of free atoms

     starting charge      57.9997, renormalised to      58.0000
     Starting wfcs are   72 randomized atomic wfcs

     total cpu time spent up to now is        1.7 secs

     Self-consistent Calculation

     iteration #  1     ecut=    80.00 Ry     beta= 0.70
     Davidson diagonalization with overlap

---- Real-time Memory Report at c_bands before calling an iterative solver
            84 MiB given to the printing process from OS
             0 MiB allocation reported by mallinfo(arena+hblkhd)
        228737 MiB available memory on the node where the printing process lives
------------------
     ethr =  1.00E-02,  avg # of iterations =  2.7

     total cpu time spent up to now is        7.0 secs

     total energy              =    -552.42624913 Ry
     estimated scf accuracy    <       1.21384507 Ry

     iteration #  2     ecut=    80.00 Ry     beta= 0.70
     Davidson diagonalization with overlap

---- Real-time Memory Report at c_bands before calling an iterative solver
            91 MiB given to the printing process from OS
             0 MiB allocation reported by mallinfo(arena+hblkhd)
        228579 MiB available memory on the node where the printing process lives
------------------
     ethr =  2.09E-03,  avg # of iterations =  2.1

     total cpu time spent up to now is       12.6 secs

     total energy              =    -552.30175678 Ry
     estimated scf accuracy    <       4.20400427 Ry

     iteration #  3     ecut=    80.00 Ry     beta= 0.70
     Davidson diagonalization with overlap

---- Real-time Memory Report at c_bands before calling an iterative solver
            93 MiB given to the printing process from OS
             0 MiB allocation reported by mallinfo(arena+hblkhd)
        228540 MiB available memory on the node where the printing process lives
------------------
     ethr =  2.09E-03,  avg # of iterations =  2.0

     total cpu time spent up to now is       18.0 secs

     total energy              =    -553.07551272 Ry
     estimated scf accuracy    <       0.03114537 Ry

     iteration #  4     ecut=    80.00 Ry     beta= 0.70
     Davidson diagonalization with overlap

---- Real-time Memory Report at c_bands before calling an iterative solver
            95 MiB given to the printing process from OS
             0 MiB allocation reported by mallinfo(arena+hblkhd)
        228527 MiB available memory on the node where the printing process lives
------------------
     ethr =  5.37E-05,  avg # of iterations =  2.5

     total cpu time spent up to now is       23.4 secs

     total energy              =    -553.07925064 Ry
     estimated scf accuracy    <       0.00427354 Ry

     iteration #  5     ecut=    80.00 Ry     beta= 0.70
     Davidson diagonalization with overlap

---- Real-time Memory Report at c_bands before calling an iterative solver
            95 MiB given to the printing process from OS
             0 MiB allocation reported by mallinfo(arena+hblkhd)
        228519 MiB available memory on the node where the printing process lives
------------------
     ethr =  7.37E-06,  avg # of iterations =  2.8

     total cpu time spent up to now is       28.3 secs

     total energy              =    -553.07996032 Ry
     estimated scf accuracy    <       0.00021734 Ry

     iteration #  6     ecut=    80.00 Ry     beta= 0.70
     Davidson diagonalization with overlap

---- Real-time Memory Report at c_bands before calling an iterative solver
            96 MiB given to the printing process from OS
             0 MiB allocation reported by mallinfo(arena+hblkhd)
        228517 MiB available memory on the node where the printing process lives
------------------
     ethr =  3.75E-07,  avg # of iterations =  2.5

     total cpu time spent up to now is       33.2 secs

     total energy              =    -553.07998825 Ry
     estimated scf accuracy    <       0.00000867 Ry

     iteration #  7     ecut=    80.00 Ry     beta= 0.70
     Davidson diagonalization with overlap

---- Real-time Memory Report at c_bands before calling an iterative solver
            96 MiB given to the printing process from OS
             0 MiB allocation reported by mallinfo(arena+hblkhd)
        228511 MiB available memory on the node where the printing process lives
------------------
     ethr =  1.49E-08,  avg # of iterations =  2.3

     total cpu time spent up to now is       38.9 secs

     total energy              =    -553.07999124 Ry
     estimated scf accuracy    <       0.00000072 Ry

     iteration #  8     ecut=    80.00 Ry     beta= 0.70
     Davidson diagonalization with overlap

---- Real-time Memory Report at c_bands before calling an iterative solver
            99 MiB given to the printing process from OS
             0 MiB allocation reported by mallinfo(arena+hblkhd)
        228456 MiB available memory on the node where the printing process lives
------------------
     ethr =  1.24E-09,  avg # of iterations =  2.5

     total cpu time spent up to now is       43.5 secs

     total energy              =    -553.07999127 Ry
     estimated scf accuracy    <       0.00000010 Ry

     iteration #  9     ecut=    80.00 Ry     beta= 0.70
     Davidson diagonalization with overlap

---- Real-time Memory Report at c_bands before calling an iterative solver
            99 MiB given to the printing process from OS
             0 MiB allocation reported by mallinfo(arena+hblkhd)
        228458 MiB available memory on the node where the printing process lives
------------------
     ethr =  1.67E-10,  avg # of iterations =  2.4

     total cpu time spent up to now is       48.9 secs

     total energy              =    -553.07999129 Ry
     estimated scf accuracy    <          6.0E-09 Ry

     iteration # 10     ecut=    80.00 Ry     beta= 0.70
     Davidson diagonalization with overlap

---- Real-time Memory Report at c_bands before calling an iterative solver
            99 MiB given to the printing process from OS
             0 MiB allocation reported by mallinfo(arena+hblkhd)
        228440 MiB available memory on the node where the printing process lives
------------------
     ethr =  1.03E-11,  avg # of iterations =  2.5

     total cpu time spent up to now is       54.2 secs

     End of self-consistent calculation

          k = 0.0000 0.0000 0.0000 (  5409 PWs)   bands (ev):

   -79.3796 -79.3796 -79.3782 -79.3782 -46.2223 -46.2223 -46.2116 -46.2116
   -32.7620 -32.7620 -32.7527 -32.7527 -32.6178 -32.6178 -32.6020 -32.6020
    -7.0772  -7.0772  -5.9216  -5.9216  -5.0066  -5.0066  -4.8052  -4.8052
     4.2673   4.2673   4.5144   4.5144   6.0323   6.0323   6.1437   6.1437
     6.2583   6.2583   8.7834   8.7834   8.9353   8.9353   9.1928   9.1928
    10.3301  10.3301  10.9847  10.9847  10.9913  10.9913  11.0272  11.0272
    11.2086  11.2086  11.3910  11.3910  11.6425  11.6425  11.6734  11.6734
    12.0609  12.0609  14.6475  14.6475  15.0749  15.0749  17.6883  17.6883
    17.8959  17.8959  18.0455  18.0455  19.4468  19.4468

     occupation numbers 
     1.0000   1.0000   1.0000   1.0000   1.0000   1.0000   1.0000   1.0000
     1.0000   1.0000   1.0000   1.0000   1.0000   1.0000   1.0000   1.0000
     1.0000   1.0000   1.0000   1.0000   1.0000   1.0000   1.0000   1.0000
     1.0000   1.0000   1.0000   1.0000   1.0000   1.0000   1.0000   1.0000
     1.0000   1.0000   1.0000   1.0000   1.0000   1.0000   1.0000   1.0000
     1.0000   1.0000   1.0000   1.0000   1.0000   1.0000   1.0000   1.0000
     1.0000   1.0000   1.0000   1.0000   1.0000   1.0000   1.0000   1.0000
     1.0000   1.0000  -0.0000  -0.0000  -0.0000  -0.0000  -0.0000  -0.0000
    -0.0000  -0.0000  -0.0000  -0.0000  -0.0000  -0.0000

          k = 0.0000 0.0000 0.1583 (  5361 PWs)   bands (ev):

   -79.3793 -79.3793 -79.3780 -79.3780 -46.2233 -46.2233 -46.2132 -46.2132
   -32.7649 -32.7649 -32.7594 -32.7594 -32.6225 -32.6225 -32.6043 -32.6043
    -6.9649  -6.9649  -5.8630  -5.8630  -5.0594  -5.0594  -4.8758  -4.8758
     4.4308   4.4308   4.6327   4.6327   6.1301   6.1301   6.2110   6.2110
     6.3774   6.3774   8.3462   8.3462   9.0253   9.0253   9.2795   9.2795
     9.6557   9.6557  10.2155  10.2155  10.3305  10.3305  11.3404  11.3404
    11.5908  11.5908  11.6085  11.6085  11.6978  11.6978  12.2595  12.2595
    12.3740  12.3740  14.9117  14.9117  14.9586  14.9586  17.3966  17.3966
    17.7170  17.7170  18.2259  18.2259  19.2214  19.2214

     occupation numbers 
     1.0000   1.0000   1.0000   1.0000   1.0000   1.0000   1.0000   1.0000
     1.0000   1.0000   1.0000   1.0000   1.0000   1.0000   1.0000   1.0000
     1.0000   1.0000   1.0000   1.0000   1.0000   1.0000   1.0000   1.0000
     1.0000   1.0000   1.0000   1.0000   1.0000   1.0000   1.0000   1.0000
     1.0000   1.0000   1.0000   1.0000   1.0000   1.0000   1.0000   1.0000
     1.0000   1.0000   1.0000   1.0000   1.0000   1.0000   1.0000   1.0000
     1.0000   1.0000   1.0000   1.0000   1.0000   1.0000   1.0000   1.0000
     1.0000   1.0000  -0.0000  -0.0000  -0.0000  -0.0000  -0.0000  -0.0000
    -0.0000  -0.0000  -0.0000  -0.0000  -0.0000  -0.0000

          k = 0.0000 0.0000 0.3166 (  5381 PWs)   bands (ev):

   -79.3785 -79.3785 -79.3774 -79.3774 -46.2257 -46.2257 -46.2175 -46.2175
   -32.7773 -32.7773 -32.7755 -32.7755 -32.6309 -32.6309 -32.6096 -32.6096
    -6.6596  -6.6596  -5.7287  -5.7287  -5.1866  -5.1866  -5.0512  -5.0512
     4.8875   4.8875   4.9467   4.9467   6.3880   6.3880   6.4036   6.4036
     6.7329   6.7329   7.4650   7.4650   8.5363   8.5363   9.2485   9.2485
     9.3570   9.3570   9.5278   9.5278   9.7320   9.7320  10.7787  10.7787
    11.7814  11.7814  11.8704  11.8704  12.1024  12.1024  13.0138  13.0138
    13.0345  13.0345  14.6306  14.6306  15.4993  15.4993  16.8022  16.8022
    17.0981  17.0981  18.1976  18.1976  19.5563  19.5563

     occupation numbers 
     1.0000   1.0000   1.0000   1.0000   1.0000   1.0000   1.0000   1.0000
     1.0000   1.0000   1.0000   1.0000   1.0000   1.0000   1.0000   1.0000
     1.0000   1.0000   1.0000   1.0000   1.0000   1.0000   1.0000   1.0000
     1.0000   1.0000   1.0000   1.0000   1.0000   1.0000   1.0000   1.0000
     1.0000   1.0000   1.0000   1.0000   1.0000   1.0000   1.0000   1.0000
     1.0000   1.0000   1.0000   1.0000   1.0000   1.0000   1.0000   1.0000
     1.0000   1.0000   1.0000   1.0000   1.0000   1.0000   1.0000   1.0000
     1.0000   1.0000  -0.0000  -0.0000  -0.0000  -0.0000  -0.0000  -0.0000
    -0.0000  -0.0000  -0.0000  -0.0000  -0.0000  -0.0000

          k = 0.0000 0.0000 0.4749 (  5385 PWs)   bands (ev):

   -79.3775 -79.3775 -79.3768 -79.3768 -46.2280 -46.2280 -46.2227 -46.2227
   -32.7981 -32.7981 -32.7932 -32.7932 -32.6336 -32.6336 -32.6159 -32.6159
    -6.2514  -6.2514  -5.6253  -5.6253  -5.3163  -5.3163  -5.2473  -5.2473
     5.3310   5.3310   5.5042   5.5042   6.5552   6.5552   6.7249   6.7249
     6.8426   6.8426   7.3058   7.3058   7.6362   7.6362   8.6690   8.6690
     8.8232   8.8232   9.6573   9.6573   9.9037   9.9037   9.9388   9.9388
    11.7962  11.7962  12.1898  12.1898  12.2753  12.2753  13.5516  13.5516
    13.6436  13.6436  14.1954  14.1954  15.9795  15.9795  16.3343  16.3343
    16.6296  16.6296  17.3638  17.3638  20.8825  20.8825

     occupation numbers 
     1.0000   1.0000   1.0000   1.0000   1.0000   1.0000   1.0000   1.0000
     1.0000   1.0000   1.0000   1.0000   1.0000   1.0000   1.0000   1.0000
     1.0000   1.0000   1.0000   1.0000   1.0000   1.0000   1.0000   1.0000
     1.0000   1.0000   1.0000   1.0000   1.0000   1.0000   1.0000   1.0000
     1.0000   1.0000   1.0000   1.0000   1.0000   1.0000   1.0000   1.0000
     1.0000   1.0000   1.0000   1.0000   1.0000   1.0000   1.0000   1.0000
     1.0000   1.0000   1.0000   1.0000   1.0000   1.0000   1.0000   1.0000
     1.0002   1.0002  -0.0000  -0.0000  -0.0000  -0.0000  -0.0000  -0.0000
    -0.0000  -0.0000  -0.0000  -0.0000  -0.0000  -0.0000

          k = 0.0000 0.0000 0.6332 (  5390 PWs)   bands (ev):

   -79.3768 -79.3768 -79.3765 -79.3765 -46.2288 -46.2288 -46.2269 -46.2269
   -32.8109 -32.8109 -32.8085 -32.8085 -32.6295 -32.6295 -32.6227 -32.6227
    -5.8719  -5.8719  -5.6537  -5.6537  -5.3957  -5.3957  -5.3802  -5.3802
     5.6266   5.6266   5.8086   5.8086   6.4868   6.4868   6.9367   6.9367
     7.0492   7.0492   7.0564   7.0564   8.0698   8.0698   8.2533   8.2533
     8.3464   8.3464   9.0021   9.0021   9.8865   9.8865   9.9833   9.9833
    11.8220  11.8220  12.0086  12.0086  12.7993  12.7993  13.3625  13.3625
    14.0388  14.0388  14.1178  14.1178  16.0912  16.0912  16.1260  16.1260
    16.5397  16.5397  16.7590  16.7590  22.2788  22.2788

     occupation numbers 
     1.0000   1.0000   1.0000   1.0000   1.0000   1.0000   1.0000   1.0000
     1.0000   1.0000   1.0000   1.0000   1.0000   1.0000   1.0000   1.0000
     1.0000   1.0000   1.0000   1.0000   1.0000   1.0000   1.0000   1.0000
     1.0000   1.0000   1.0000   1.0000   1.0000   1.0000   1.0000   1.0000
     1.0000   1.0000   1.0000   1.0000   1.0000   1.0000   1.0000   1.0000
     1.0000   1.0000   1.0000   1.0000   1.0000   1.0000   1.0000   1.0000
     1.0000   1.0000   1.0000   1.0000   1.0000   1.0000   1.0000   1.0000
    -0.0001  -0.0001  -0.0000  -0.0000  -0.0000  -0.0000  -0.0000  -0.0000
    -0.0000  -0.0000  -0.0000  -0.0000  -0.0000  -0.0000

          k = 0.0000 0.2500 0.0000 (  5376 PWs)   bands (ev):

   -79.3794 -79.3794 -79.3784 -79.3784 -46.2208 -46.2208 -46.2132 -46.2132
   -32.7590 -32.7590 -32.7525 -32.7525 -32.6173 -32.6173 -32.6061 -32.6061
    -6.8479  -6.8479  -5.9172  -5.9172  -5.1944  -5.1944  -4.9992  -4.9992
     4.8220   4.8220   4.9474   4.9474   6.1113   6.1113   6.1912   6.1912
     6.6500   6.6500   8.1669   8.1669   8.3471   8.3471   8.6732   8.6732
     9.5068   9.5068   9.6432   9.6432  10.6080  10.6080  11.3607  11.3607
    11.7046  11.7046  11.8076  11.8076  12.0479  12.0479  12.2040  12.2040
    12.6445  12.6445  14.6182  14.6182  15.5916  15.5916  17.4704  17.4704
    17.7505  17.7505  18.8461  18.8461  18.9359  18.9359

     occupation numbers 
     1.0000   1.0000   1.0000   1.0000   1.0000   1.0000   1.0000   1.0000
     1.0000   1.0000   1.0000   1.0000   1.0000   1.0000   1.0000   1.0000
     1.0000   1.0000   1.0000   1.0000   1.0000   1.0000   1.0000   1.0000
     1.0000   1.0000   1.0000   1.0000   1.0000   1.0000   1.0000   1.0000
     1.0000   1.0000   1.0000   1.0000   1.0000   1.0000   1.0000   1.0000
     1.0000   1.0000   1.0000   1.0000   1.0000   1.0000   1.0000   1.0000
     1.0000   1.0000   1.0000   1.0000   1.0000   1.0000   1.0000   1.0000
     1.0000   1.0000  -0.0000  -0.0000  -0.0000  -0.0000  -0.0000  -0.0000
    -0.0000  -0.0000  -0.0000  -0.0000  -0.0000  -0.0000

          k = 0.0000 0.2500 0.1583 (  5363 PWs)   bands (ev):

   -79.3791 -79.3791 -79.3782 -79.3782 -46.2219 -46.2219 -46.2147 -46.2147
   -32.7654 -32.7654 -32.7563 -32.7563 -32.6220 -32.6220 -32.6080 -32.6080
    -6.7435  -6.7435  -5.8459  -5.8459  -5.2460  -5.2460  -5.0575  -5.0575
     4.9441   4.9441   5.0641   5.0641   6.1728   6.1728   6.2290   6.2290
     6.8149   6.8149   8.1130   8.1130   8.2722   8.2722   8.5284   8.5284
     8.8492   8.8492   9.8073   9.8073  10.3772  10.3772  11.2264  11.2264
    11.7062  11.7062  12.0455  12.0455  12.1680  12.1680  12.4428  12.4428
    12.8339  12.8339  14.5302  14.5302  15.7520  15.7520  17.0702  17.0702
    17.3924  17.3924  18.7757  18.7757  19.2856  19.2856

     occupation numbers 
     1.0000   1.0000   1.0000   1.0000   1.0000   1.0000   1.0000   1.0000
     1.0000   1.0000   1.0000   1.0000   1.0000   1.0000   1.0000   1.0000
     1.0000   1.0000   1.0000   1.0000   1.0000   1.0000   1.0000   1.0000
     1.0000   1.0000   1.0000   1.0000   1.0000   1.0000   1.0000   1.0000
     1.0000   1.0000   1.0000   1.0000   1.0000   1.0000   1.0000   1.0000
     1.0000   1.0000   1.0000   1.0000   1.0000   1.0000   1.0000   1.0000
     1.0000   1.0000   1.0000   1.0000   1.0000   1.0000   1.0000   1.0000
     1.0000   1.0000  -0.0000  -0.0000  -0.0000  -0.0000  -0.0000  -0.0000
    -0.0000  -0.0000  -0.0000  -0.0000  -0.0000  -0.0000

          k = 0.0000 0.2500 0.3166 (  5382 PWs)   bands (ev):

   -79.3783 -79.3783 -79.3776 -79.3776 -46.2245 -46.2245 -46.2187 -46.2187
   -32.7833 -32.7833 -32.7680 -32.7680 -32.6304 -32.6304 -32.6121 -32.6121
    -6.4663  -6.4663  -5.6813  -5.6813  -5.3662  -5.3662  -5.1947  -5.1947
     5.2594   5.2594   5.3591   5.3591   6.3551   6.3551   6.4251   6.4251
     7.0751   7.0751   7.4265   7.4265   7.7237   7.7237   8.6078   8.6078
     8.9258   8.9258   9.5773   9.5773   9.8401   9.8401  11.0844  11.0844
    11.4232  11.4232  12.3134  12.3134  12.4357  12.4357  12.8098  12.8098
    13.2773  13.2773  14.3255  14.3255  16.0341  16.0341  16.3247  16.3247
    16.8835  16.8835  18.4632  18.4632  20.1701  20.1701

     occupation numbers 
     1.0000   1.0000   1.0000   1.0000   1.0000   1.0000   1.0000   1.0000
     1.0000   1.0000   1.0000   1.0000   1.0000   1.0000   1.0000   1.0000
     1.0000   1.0000   1.0000   1.0000   1.0000   1.0000   1.0000   1.0000
     1.0000   1.0000   1.0000   1.0000   1.0000   1.0000   1.0000   1.0000
     1.0000   1.0000   1.0000   1.0000   1.0000   1.0000   1.0000   1.0000
     1.0000   1.0000   1.0000   1.0000   1.0000   1.0000   1.0000   1.0000
     1.0000   1.0000   1.0000   1.0000   1.0000   1.0000   1.0000   1.0000
     1.0000   1.0000  -0.0000  -0.0000  -0.0000  -0.0000  -0.0000  -0.0000
    -0.0000  -0.0000  -0.0000  -0.0000  -0.0000  -0.0000

          k = 0.0000 0.2500 0.4749 (  5376 PWs)   bands (ev):

   -79.3774 -79.3774 -79.3769 -79.3769 -46.2274 -46.2274 -46.2234 -46.2234
   -32.8056 -32.8056 -32.7856 -32.7856 -32.6341 -32.6341 -32.6160 -32.6160
    -6.1227  -6.1227  -5.6210  -5.6210  -5.4207  -5.4207  -5.3014  -5.3014
     5.5904   5.5904   5.6936   5.6936   6.1890   6.1890   6.5952   6.5952
     7.0501   7.0501   7.1564   7.1564   7.8719   7.8719   8.6542   8.6542
     9.0360   9.0360   9.2900   9.2900   9.5698   9.5698  10.5210  10.5210
    11.5804  11.5804  12.1779  12.1779  12.3273  12.3273  12.9998  12.9998
    13.7609  13.7609  14.2468  14.2468  15.6344  15.6344  15.8292  15.8292
    17.0791  17.0791  18.1053  18.1053  21.3019  21.3019

     occupation numbers 
     1.0000   1.0000   1.0000   1.0000   1.0000   1.0000   1.0000   1.0000
     1.0000   1.0000   1.0000   1.0000   1.0000   1.0000   1.0000   1.0000
     1.0000   1.0000   1.0000   1.0000   1.0000   1.0000   1.0000   1.0000
     1.0000   1.0000   1.0000   1.0000   1.0000   1.0000   1.0000   1.0000
     1.0000   1.0000   1.0000   1.0000   1.0000   1.0000   1.0000   1.0000
     1.0000   1.0000   1.0000   1.0000   1.0000   1.0000   1.0000   1.0000
     1.0000   1.0000   1.0000   1.0000   1.0000   1.0000   1.0000   1.0000
     1.0331   1.0331  -0.0000  -0.0000  -0.0000  -0.0000  -0.0000  -0.0000
    -0.0000  -0.0000  -0.0000  -0.0000  -0.0000  -0.0000

          k = 0.0000 0.2500 0.6332 (  5368 PWs)   bands (ev):

   -79.3767 -79.3767 -79.3766 -79.3766 -46.2288 -46.2288 -46.2269 -46.2269
   -32.8207 -32.8207 -32.7991 -32.7991 -32.6335 -32.6335 -32.6187 -32.6187
    -5.8643  -5.8643  -5.7264  -5.7264  -5.4132  -5.4132  -5.2837  -5.2837
     5.6695   5.6695   5.7844   5.7844   6.0316   6.0316   6.2942   6.2942
     7.4352   7.4352   7.6757   7.6757   8.0958   8.0958   8.4909   8.4909
     8.8778   8.8778   9.3765   9.3765   9.6194   9.6194   9.7952   9.7952
    11.8315  11.8315  11.9713  11.9713  12.2021  12.2021  12.7251  12.7251
    14.0463  14.0463  14.3914  14.3914  15.3439  15.3439  15.4734  15.4734
    17.4594  17.4594  17.8278  17.8278  22.4593  22.4593

     occupation numbers 
     1.0000   1.0000   1.0000   1.0000   1.0000   1.0000   1.0000   1.0000
     1.0000   1.0000   1.0000   1.0000   1.0000   1.0000   1.0000   1.0000
     1.0000   1.0000   1.0000   1.0000   1.0000   1.0000   1.0000   1.0000
     1.0000   1.0000   1.0000   1.0000   1.0000   1.0000   1.0000   1.0000
     1.0000   1.0000   1.0000   1.0000   1.0000   1.0000   1.0000   1.0000
     1.0000   1.0000   1.0000   1.0000   1.0000   1.0000   1.0000   1.0000
     1.0000   1.0000   1.0000   1.0000   1.0000   1.0000   1.0000   1.0000
    -0.0001  -0.0001  -0.0000  -0.0000  -0.0000  -0.0000  -0.0000  -0.0000
    -0.0000  -0.0000  -0.0000  -0.0000  -0.0000  -0.0000

          k = 0.0000-0.5000 0.0000 (  5380 PWs)   bands (ev):

   -79.3789 -79.3789 -79.3789 -79.3789 -46.2170 -46.2170 -46.2170 -46.2170
   -32.7542 -32.7542 -32.7542 -32.7542 -32.6136 -32.6136 -32.6136 -32.6136
    -6.2835  -6.2835  -6.2835  -6.2835  -5.2665  -5.2665  -5.2665  -5.2665
     5.6273   5.6273   5.6273   5.6273   6.2389   6.2389   6.2389   6.2389
     7.2624   7.2624   7.2624   7.2624   7.8910   7.8910   7.8910   7.8910
     8.7683   8.7683   8.7683   8.7683  10.8247  10.8247  10.8247  10.8247
    12.1273  12.1273  12.1273  12.1273  12.5032  12.5032  12.5032  12.5032
    13.6403  13.6403  13.6403  13.6403  17.2189  17.2189  17.2189  17.2189
    17.5171  17.5171  17.5171  17.5171  20.7704  20.7704

     occupation numbers 
     1.0000   1.0000   1.0000   1.0000   1.0000   1.0000   1.0000   1.0000
     1.0000   1.0000   1.0000   1.0000   1.0000   1.0000   1.0000   1.0000
     1.0000   1.0000   1.0000   1.0000   1.0000   1.0000   1.0000   1.0000
     1.0000   1.0000   1.0000   1.0000   1.0000   1.0000   1.0000   1.0000
     1.0000   1.0000   1.0000   1.0000   1.0000   1.0000   1.0000   1.0000
     1.0000   1.0000   1.0000   1.0000   1.0000   1.0000   1.0000   1.0000
     1.0000   1.0000   1.0000   1.0000   1.0000   1.0000   1.0000   1.0000
     1.0002   1.0002   1.0002   1.0002  -0.0000  -0.0000  -0.0000  -0.0000
    -0.0000  -0.0000  -0.0000  -0.0000  -0.0000  -0.0000

          k = 0.0000-0.5000 0.1583 (  5368 PWs)   bands (ev):

   -79.3786 -79.3786 -79.3786 -79.3786 -46.2186 -46.2186 -46.2180 -46.2180
   -32.7653 -32.7653 -32.7537 -32.7537 -32.6206 -32.6206 -32.6127 -32.6127
    -6.2079  -6.2079  -6.1818  -6.1818  -5.3269  -5.3269  -5.3009  -5.3009
     5.7296   5.7296   5.8254   5.8254   6.1668   6.1668   6.1776   6.1776
     7.4741   7.4741   7.5229   7.5229   7.7075   7.7075   7.7259   7.7259
     8.4803   8.4803   8.5972   8.5972  10.8375  10.8375  10.8626  10.8626
    12.0446  12.0446  12.0602  12.0602  12.6732  12.6732  12.7974  12.7974
    13.5191  13.5191  13.7350  13.7350  16.7045  16.7045  16.9120  16.9120
    17.5252  17.5252  17.5942  17.5942  21.0992  21.1027

     occupation numbers 
     1.0000   1.0000   1.0000   1.0000   1.0000   1.0000   1.0000   1.0000
     1.0000   1.0000   1.0000   1.0000   1.0000   1.0000   1.0000   1.0000
     1.0000   1.0000   1.0000   1.0000   1.0000   1.0000   1.0000   1.0000
     1.0000   1.0000   1.0000   1.0000   1.0000   1.0000   1.0000   1.0000
     1.0000   1.0000   1.0000   1.0000   1.0000   1.0000   1.0000   1.0000
     1.0000   1.0000   1.0000   1.0000   1.0000   1.0000   1.0000   1.0000
     1.0000   1.0000   1.0000   1.0000   1.0000   1.0000   1.0000   1.0000
     1.0000   1.0000   1.0281   1.0281  -0.0000  -0.0000  -0.0000  -0.0000
    -0.0000  -0.0000  -0.0000  -0.0000  -0.0000  -0.0000

          k = 0.0000-0.5000 0.3166 (  5392 PWs)   bands (ev):

   -79.3779 -79.3779 -79.3779 -79.3779 -46.2223 -46.2223 -46.2210 -46.2210
   -32.7858 -32.7858 -32.7642 -32.7642 -32.6294 -32.6294 -32.6149 -32.6149
    -5.9972  -5.9972  -5.9612  -5.9612  -5.4470  -5.4470  -5.3833  -5.3833
     5.9459   5.9459   6.0256   6.0256   6.3344   6.3344   6.4123   6.4123
     6.8839   6.8839   6.9039   6.9039   7.9772   7.9772   7.9884   7.9884
     8.6585   8.6585   8.6906   8.6906  10.5213  10.5213  10.5316  10.5316
    12.0756  12.0756  12.1470  12.1470  12.6960  12.6960  12.9371  12.9371
    13.5226  13.5226  13.9394  13.9394  15.9355  15.9355  16.0785  16.0785
    17.7221  17.7221  17.7828  17.7828  21.7843  21.7856

     occupation numbers 
     1.0000   1.0000   1.0000   1.0000   1.0000   1.0000   1.0000   1.0000
     1.0000   1.0000   1.0000   1.0000   1.0000   1.0000   1.0000   1.0000
     1.0000   1.0000   1.0000   1.0000   1.0000   1.0000   1.0000   1.0000
     1.0000   1.0000   1.0000   1.0000   1.0000   1.0000   1.0000   1.0000
     1.0000   1.0000   1.0000   1.0000   1.0000   1.0000   1.0000   1.0000
     1.0000   1.0000   1.0000   1.0000   1.0000   1.0000   1.0000   1.0000
     1.0000   1.0000   1.0000   1.0000   1.0000   1.0000   1.0000   1.0000
     1.0000   1.0000  -0.0270  -0.0270  -0.0000  -0.0000  -0.0000  -0.0000
    -0.0000  -0.0000  -0.0000  -0.0000  -0.0000  -0.0000

          k = 0.0000-0.5000 0.4749 (  5380 PWs)   bands (ev):

   -79.3772 -79.3772 -79.3772 -79.3772 -46.2262 -46.2262 -46.2246 -46.2246
   -32.8094 -32.8094 -32.7816 -32.7816 -32.6345 -32.6345 -32.6162 -32.6162
    -5.8184  -5.8184  -5.8145  -5.8145  -5.4960  -5.4960  -5.3625  -5.3625
     5.9347   5.9347   5.9602   5.9602   6.1657   6.1657   6.1972   6.1972
     6.9160   6.9160   7.1659   7.1659   8.3178   8.3178   8.3404   8.3404
     8.9252   8.9252   9.0158   9.0158  10.2546  10.2546  10.3032  10.3032
    11.7249  11.7249  11.7693  11.7693  12.3900  12.3900  12.6847  12.6847
    13.8560  13.8560  14.2681  14.2681  15.3423  15.3423  15.3911  15.3911
    17.9807  17.9807  18.1155  18.1155  22.5188  22.5191

     occupation numbers 
     1.0000   1.0000   1.0000   1.0000   1.0000   1.0000   1.0000   1.0000
     1.0000   1.0000   1.0000   1.0000   1.0000   1.0000   1.0000   1.0000
     1.0000   1.0000   1.0000   1.0000   1.0000   1.0000   1.0000   1.0000
     1.0000   1.0000   1.0000   1.0000   1.0000   1.0000   1.0000   1.0000
     1.0000   1.0000   1.0000   1.0000   1.0000   1.0000   1.0000   1.0000
     1.0000   1.0000   1.0000   1.0000   1.0000   1.0000   1.0000   1.0000
     1.0000   1.0000   1.0000   1.0000   1.0000   1.0000   1.0000   1.0000
     0.2671   0.2671  -0.0000  -0.0000  -0.0000  -0.0000  -0.0000  -0.0000
    -0.0000  -0.0000  -0.0000  -0.0000  -0.0000  -0.0000

          k = 0.0000-0.5000 0.6332 (  5362 PWs)   bands (ev):

   -79.3767 -79.3767 -79.3767 -79.3767 -46.2288 -46.2288 -46.2269 -46.2269
   -32.8253 -32.8253 -32.7948 -32.7948 -32.6359 -32.6359 -32.6162 -32.6162
    -5.8232  -5.8232  -5.8218  -5.8218  -5.3945  -5.3945  -5.2338  -5.2338
     5.5066   5.5066   5.5480   5.5480   6.2006   6.2006   6.2023   6.2023
     7.4453   7.4453   7.9045   7.9045   8.4975   8.4975   8.5623   8.5623
     8.8736   8.8736   8.9931   8.9931  10.4849  10.4849  10.4959  10.4959
    11.1979  11.1979  11.2090  11.2090  11.9758  11.9758  12.2986  12.2986
    14.1258  14.1258  14.4814  14.4814  15.0580  15.0580  15.0895  15.0895
    18.1959  18.1959  18.3616  18.3616  23.0426  23.1048

     occupation numbers 
     1.0000   1.0000   1.0000   1.0000   1.0000   1.0000   1.0000   1.0000
     1.0000   1.0000   1.0000   1.0000   1.0000   1.0000   1.0000   1.0000
     1.0000   1.0000   1.0000   1.0000   1.0000   1.0000   1.0000   1.0000
     1.0000   1.0000   1.0000   1.0000   1.0000   1.0000   1.0000   1.0000
     1.0000   1.0000   1.0000   1.0000   1.0000   1.0000   1.0000   1.0000
     1.0000   1.0000   1.0000   1.0000   1.0000   1.0000   1.0000   1.0000
     1.0000   1.0000   1.0000   1.0000   1.0000   1.0000   1.0000   1.0000
    -0.0000  -0.0000  -0.0000  -0.0000  -0.0000  -0.0000  -0.0000  -0.0000
    -0.0000  -0.0000  -0.0000  -0.0000  -0.0000  -0.0000

          k = 0.2500 0.2500 0.0000 (  5379 PWs)   bands (ev):

   -79.3792 -79.3792 -79.3786 -79.3786 -46.2197 -46.2197 -46.2143 -46.2143
   -32.7583 -32.7583 -32.7529 -32.7529 -32.6163 -32.6163 -32.6079 -32.6079
    -6.7087  -6.7087  -5.9990  -5.9990  -5.3070  -5.3070  -4.9659  -4.9659
     4.3988   4.3988   5.6513   5.6513   6.0512   6.0512   6.2440   6.2440
     6.9803   6.9803   7.3112   7.3112   8.6324   8.6324   8.9065   8.9065
     9.6593   9.6593   9.8164   9.8164  10.0775  10.0775  11.0554  11.0554
    11.1946  11.1946  11.6789  11.6789  12.1795  12.1795  12.5182  12.5182
    13.1333  13.1333  14.4483  14.4483  15.6575  15.6575  17.3301  17.3301
    17.8125  17.8125  18.3179  18.3179  19.8820  19.8820

     occupation numbers 
     1.0000   1.0000   1.0000   1.0000   1.0000   1.0000   1.0000   1.0000
     1.0000   1.0000   1.0000   1.0000   1.0000   1.0000   1.0000   1.0000
     1.0000   1.0000   1.0000   1.0000   1.0000   1.0000   1.0000   1.0000
     1.0000   1.0000   1.0000   1.0000   1.0000   1.0000   1.0000   1.0000
     1.0000   1.0000   1.0000   1.0000   1.0000   1.0000   1.0000   1.0000
     1.0000   1.0000   1.0000   1.0000   1.0000   1.0000   1.0000   1.0000
     1.0000   1.0000   1.0000   1.0000   1.0000   1.0000   1.0000   1.0000
     1.0000   1.0000  -0.0000  -0.0000  -0.0000  -0.0000  -0.0000  -0.0000
    -0.0000  -0.0000  -0.0000  -0.0000  -0.0000  -0.0000

          k = 0.2500 0.2500 0.1583 (  5393 PWs)   bands (ev):

   -79.3789 -79.3789 -79.3783 -79.3783 -46.2208 -46.2208 -46.2158 -46.2158
   -32.7652 -32.7652 -32.7563 -32.7563 -32.6208 -32.6208 -32.6098 -32.6098
    -6.6088  -6.6088  -5.9182  -5.9182  -5.3581  -5.3581  -5.0262  -5.0262
     4.5333   4.5333   5.7980   5.7980   6.0595   6.0595   6.1815   6.1815
     7.1655   7.1655   7.5548   7.5548   8.0141   8.0141   8.9707   8.9707
     9.0642   9.0642   9.9612   9.9612  10.1608  10.1608  10.6587  10.6587
    11.5036  11.5036  11.8621  11.8621  12.2504  12.2504  12.7306  12.7306
    13.2061  13.2061  14.3421  14.3421  15.8586  15.8586  16.8687  16.8687
    17.5522  17.5522  18.2866  18.2866  20.1779  20.1779

     occupation numbers 
     1.0000   1.0000   1.0000   1.0000   1.0000   1.0000   1.0000   1.0000
     1.0000   1.0000   1.0000   1.0000   1.0000   1.0000   1.0000   1.0000
     1.0000   1.0000   1.0000   1.0000   1.0000   1.0000   1.0000   1.0000
     1.0000   1.0000   1.0000   1.0000   1.0000   1.0000   1.0000   1.0000
     1.0000   1.0000   1.0000   1.0000   1.0000   1.0000   1.0000   1.0000
     1.0000   1.0000   1.0000   1.0000   1.0000   1.0000   1.0000   1.0000
     1.0000   1.0000   1.0000   1.0000   1.0000   1.0000   1.0000   1.0000
     1.0000   1.0000  -0.0000  -0.0000  -0.0000  -0.0000  -0.0000  -0.0000
    -0.0000  -0.0000  -0.0000  -0.0000  -0.0000  -0.0000

          k = 0.2500 0.2500 0.3166 (  5373 PWs)   bands (ev):

   -79.3782 -79.3782 -79.3777 -79.3777 -46.2237 -46.2237 -46.2195 -46.2195
   -32.7834 -32.7834 -32.7680 -32.7680 -32.6289 -32.6289 -32.6140 -32.6140
    -6.3459  -6.3459  -5.7197  -5.7197  -5.4781  -5.4781  -5.1735  -5.1735
     4.9020   4.9020   5.9908   5.9908   6.1356   6.1356   6.3915   6.3915
     6.9592   6.9592   7.6105   7.6105   8.0561   8.0561   8.1118   8.1118
     9.1356   9.1356   9.5513   9.5513  10.0072  10.0072  10.7493  10.7493
    11.6089  11.6089  11.9524  11.9524  12.5136  12.5136  12.9217  12.9217
    13.4554  13.4554  14.1237  14.1237  15.9442  15.9442  16.3971  16.3971
    17.0037  17.0037  18.1963  18.1963  20.8388  20.8388

     occupation numbers 
     1.0000   1.0000   1.0000   1.0000   1.0000   1.0000   1.0000   1.0000
     1.0000   1.0000   1.0000   1.0000   1.0000   1.0000   1.0000   1.0000
     1.0000   1.0000   1.0000   1.0000   1.0000   1.0000   1.0000   1.0000
     1.0000   1.0000   1.0000   1.0000   1.0000   1.0000   1.0000   1.0000
     1.0000   1.0000   1.0000   1.0000   1.0000   1.0000   1.0000   1.0000
     1.0000   1.0000   1.0000   1.0000   1.0000   1.0000   1.0000   1.0000
     1.0000   1.0000   1.0000   1.0000   1.0000   1.0000   1.0000   1.0000
     1.0000   1.0000  -0.0000  -0.0000  -0.0000  -0.0000  -0.0000  -0.0000
    -0.0000  -0.0000  -0.0000  -0.0000  -0.0000  -0.0000

          k = 0.2500 0.2500 0.4749 (  5360 PWs)   bands (ev):

   -79.3773 -79.3773 -79.3770 -79.3770 -46.2269 -46.2269 -46.2239 -46.2239
   -32.8055 -32.8055 -32.7857 -32.7857 -32.6331 -32.6331 -32.6173 -32.6173
    -6.0296  -6.0296  -5.6485  -5.6485  -5.4678  -5.4678  -5.3167  -5.3167
     5.3924   5.3924   5.9637   5.9637   6.1565   6.1565   6.3393   6.3393
     6.8130   6.8130   7.4649   7.4649   8.1525   8.1525   8.4898   8.4898
     8.8216   8.8216   9.5632   9.5632   9.6955   9.6955  10.8262  10.8262
    11.3911  11.3911  12.0268  12.0268  12.4418  12.4418  13.1183  13.1183
    13.3762  13.3762  14.2447  14.2447  15.3296  15.3296  16.3488  16.3488
    16.8983  16.8983  18.1121  18.1121  21.6879  21.6879

     occupation numbers 
     1.0000   1.0000   1.0000   1.0000   1.0000   1.0000   1.0000   1.0000
     1.0000   1.0000   1.0000   1.0000   1.0000   1.0000   1.0000   1.0000
     1.0000   1.0000   1.0000   1.0000   1.0000   1.0000   1.0000   1.0000
     1.0000   1.0000   1.0000   1.0000   1.0000   1.0000   1.0000   1.0000
     1.0000   1.0000   1.0000   1.0000   1.0000   1.0000   1.0000   1.0000
     1.0000   1.0000   1.0000   1.0000   1.0000   1.0000   1.0000   1.0000
     1.0000   1.0000   1.0000   1.0000   1.0000   1.0000   1.0000   1.0000
     1.0000   1.0000  -0.0000  -0.0000  -0.0000  -0.0000  -0.0000  -0.0000
    -0.0000  -0.0000  -0.0000  -0.0000  -0.0000  -0.0000

          k = 0.2500 0.2500 0.6332 (  5361 PWs)   bands (ev):

   -79.3767 -79.3767 -79.3766 -79.3766 -46.2287 -46.2287 -46.2270 -46.2270
   -32.8207 -32.8207 -32.7991 -32.7991 -32.6334 -32.6334 -32.6190 -32.6190
    -5.8461  -5.8461  -5.6806  -5.6806  -5.4712  -5.4712  -5.2775  -5.2775
     5.5516   5.5516   5.8233   5.8233   6.1733   6.1733   6.3772   6.3772
     6.5472   6.5472   7.9362   7.9362   8.2907   8.2907   8.6376   8.6376
     8.9422   8.9422   9.3594   9.3594   9.6954   9.6954  10.3809  10.3809
    11.5929  11.5929  11.9402  11.9402  12.1379  12.1379  12.9612  12.9612
    13.4612  13.4612  14.4806  14.4806  15.0097  15.0097  16.1286  16.1286
    16.9718  16.9718  18.1415  18.1415  22.5829  22.5829

     occupation numbers 
     1.0000   1.0000   1.0000   1.0000   1.0000   1.0000   1.0000   1.0000
     1.0000   1.0000   1.0000   1.0000   1.0000   1.0000   1.0000   1.0000
     1.0000   1.0000   1.0000   1.0000   1.0000   1.0000   1.0000   1.0000
     1.0000   1.0000   1.0000   1.0000   1.0000   1.0000   1.0000   1.0000
     1.0000   1.0000   1.0000   1.0000   1.0000   1.0000   1.0000   1.0000
     1.0000   1.0000   1.0000   1.0000   1.0000   1.0000   1.0000   1.0000
     1.0000   1.0000   1.0000   1.0000   1.0000   1.0000   1.0000   1.0000
     1.0000   1.0000  -0.0000  -0.0000  -0.0000  -0.0000  -0.0000  -0.0000
    -0.0000  -0.0000  -0.0000  -0.0000  -0.0000  -0.0000

          k = 0.2500-0.5000 0.0000 (  5384 PWs)   bands (ev):

   -79.3789 -79.3789 -79.3789 -79.3789 -46.2170 -46.2170 -46.2170 -46.2170
   -32.7555 -32.7555 -32.7555 -32.7555 -32.6124 -32.6124 -32.6124 -32.6124
    -6.3548  -6.3548  -6.3548  -6.3548  -5.1480  -5.1480  -5.1480  -5.1480
     4.8777   4.8777   4.8777   4.8777   6.1071   6.1071   6.1071   6.1071
     7.8842   7.8842   7.8842   7.8842   8.6781   8.6781   8.6781   8.6781
     9.1499   9.1499   9.1499   9.1499  10.2891  10.2891  10.2891  10.2891
    11.7984  11.7984  11.7984  11.7984  12.1693  12.1693  12.1693  12.1693
    13.8732  13.8732  13.8732  13.8732  16.7381  16.7381  16.7381  16.7381
    17.6810  17.6810  17.6810  17.6810  21.4468  21.4468

     occupation numbers 
     1.0000   1.0000   1.0000   1.0000   1.0000   1.0000   1.0000   1.0000
     1.0000   1.0000   1.0000   1.0000   1.0000   1.0000   1.0000   1.0000
     1.0000   1.0000   1.0000   1.0000   1.0000   1.0000   1.0000   1.0000
     1.0000   1.0000   1.0000   1.0000   1.0000   1.0000   1.0000   1.0000
     1.0000   1.0000   1.0000   1.0000   1.0000   1.0000   1.0000   1.0000
     1.0000   1.0000   1.0000   1.0000   1.0000   1.0000   1.0000   1.0000
     1.0000   1.0000   1.0000   1.0000   1.0000   1.0000   1.0000   1.0000
     0.1084   0.1084   0.1084   0.1084  -0.0000  -0.0000  -0.0000  -0.0000
    -0.0000  -0.0000  -0.0000  -0.0000  -0.0000  -0.0000

          k = 0.2500-0.5000 0.1583 (  5386 PWs)   bands (ev):

   -79.3786 -79.3786 -79.3786 -79.3786 -46.2186 -46.2186 -46.2181 -46.2181
   -32.7648 -32.7648 -32.7566 -32.7566 -32.6184 -32.6184 -32.6129 -32.6129
    -6.2749  -6.2749  -6.2576  -6.2576  -5.2098  -5.2098  -5.1896  -5.1896
     4.9750   4.9750   5.0192   5.0192   6.1149   6.1149   6.1155   6.1155
     7.9678   7.9678   7.9827   7.9827   8.5715   8.5715   8.5865   8.5865
     8.8420   8.8420   8.9230   8.9230  10.2408  10.2408  10.2498  10.2498
    11.8871  11.8871  11.8896  11.8896  12.3893  12.3893  12.4277  12.4277
    13.7427  13.7427  13.8316  13.8316  16.6548  16.6548  16.8505  16.8505
    17.3770  17.3770  17.4969  17.4969  21.6505  21.6505

     occupation numbers 
     1.0000   1.0000   1.0000   1.0000   1.0000   1.0000   1.0000   1.0000
     1.0000   1.0000   1.0000   1.0000   1.0000   1.0000   1.0000   1.0000
     1.0000   1.0000   1.0000   1.0000   1.0000   1.0000   1.0000   1.0000
     1.0000   1.0000   1.0000   1.0000   1.0000   1.0000   1.0000   1.0000
     1.0000   1.0000   1.0000   1.0000   1.0000   1.0000   1.0000   1.0000
     1.0000   1.0000   1.0000   1.0000   1.0000   1.0000   1.0000   1.0000
     1.0000   1.0000   1.0000   1.0000   1.0000   1.0000   1.0000   1.0000
     1.0326   1.0326   0.5598   0.5598  -0.0000  -0.0000  -0.0000  -0.0000
    -0.0000  -0.0000  -0.0000  -0.0000  -0.0000  -0.0000

          k = 0.2500-0.5000 0.3166 (  5372 PWs)   bands (ev):

   -79.3779 -79.3779 -79.3779 -79.3779 -46.2221 -46.2221 -46.2212 -46.2212
   -32.7833 -32.7833 -32.7682 -32.7682 -32.6267 -32.6267 -32.6165 -32.6165
    -6.0557  -6.0557  -6.0308  -6.0308  -5.3437  -5.3437  -5.2971  -5.2971
     5.2625   5.2625   5.3287   5.3287   6.1796   6.1796   6.2117   6.2117
     7.4955   7.4955   7.5031   7.5031   8.5781   8.5781   8.5826   8.5826
     8.9412   8.9412   9.0045   9.0045  10.0431  10.0431  10.0542  10.0542
    12.1070  12.1070  12.1625  12.1625  12.5317  12.5317  12.6530  12.6530
    13.5463  13.5463  13.7819  13.7819  16.2768  16.2768  16.4332  16.4332
    17.3945  17.3945  17.4306  17.4306  22.1205  22.1212

     occupation numbers 
     1.0000   1.0000   1.0000   1.0000   1.0000   1.0000   1.0000   1.0000
     1.0000   1.0000   1.0000   1.0000   1.0000   1.0000   1.0000   1.0000
     1.0000   1.0000   1.0000   1.0000   1.0000   1.0000   1.0000   1.0000
     1.0000   1.0000   1.0000   1.0000   1.0000   1.0000   1.0000   1.0000
     1.0000   1.0000   1.0000   1.0000   1.0000   1.0000   1.0000   1.0000
     1.0000   1.0000   1.0000   1.0000   1.0000   1.0000   1.0000   1.0000
     1.0000   1.0000   1.0000   1.0000   1.0000   1.0000   1.0000   1.0000
     1.0000   1.0000   0.9905   0.9905  -0.0000  -0.0000  -0.0000  -0.0000
    -0.0000  -0.0000  -0.0000  -0.0000  -0.0000  -0.0000

          k = 0.2500-0.5000 0.4749 (  5360 PWs)   bands (ev):

   -79.3772 -79.3772 -79.3772 -79.3772 -46.2260 -46.2260 -46.2248 -46.2248
   -32.8055 -32.8055 -32.7859 -32.7859 -32.6318 -32.6318 -32.6189 -32.6189
    -5.8199  -5.8199  -5.8187  -5.8187  -5.4590  -5.4590  -5.3621  -5.3621
     5.5740   5.5740   5.5997   5.5997   6.1628   6.1628   6.2945   6.2945
     7.0424   7.0424   7.0715   7.0715   8.5444   8.5444   8.6460   8.6460
     9.1188   9.1188   9.1449   9.1449  10.2185  10.2185  10.2268  10.2268
    12.0004  12.0004  12.0162  12.0162  12.3132  12.3132  12.5953  12.5953
    13.6178  13.6178  13.9564  13.9564  15.7496  15.7496  15.8042  15.8042
    17.6091  17.6091  17.6792  17.6792  22.6535  22.6596

     occupation numbers 
     1.0000   1.0000   1.0000   1.0000   1.0000   1.0000   1.0000   1.0000
     1.0000   1.0000   1.0000   1.0000   1.0000   1.0000   1.0000   1.0000
     1.0000   1.0000   1.0000   1.0000   1.0000   1.0000   1.0000   1.0000
     1.0000   1.0000   1.0000   1.0000   1.0000   1.0000   1.0000   1.0000
     1.0000   1.0000   1.0000   1.0000   1.0000   1.0000   1.0000   1.0000
     1.0000   1.0000   1.0000   1.0000   1.0000   1.0000   1.0000   1.0000
     1.0000   1.0000   1.0000   1.0000   1.0000   1.0000   1.0000   1.0000
     1.0000   1.0000  -0.0159  -0.0159  -0.0000  -0.0000  -0.0000  -0.0000
    -0.0000  -0.0000  -0.0000  -0.0000  -0.0000  -0.0000

          k = 0.2500-0.5000 0.6332 (  5360 PWs)   bands (ev):

   -79.3767 -79.3767 -79.3767 -79.3767 -46.2286 -46.2286 -46.2272 -46.2272
   -32.8208 -32.8208 -32.7992 -32.7992 -32.6333 -32.6333 -32.6194 -32.6194
    -5.7654  -5.7654  -5.7416  -5.7416  -5.4466  -5.4466  -5.3096  -5.3096
     5.6259   5.6259   5.6524   5.6524   6.0285   6.0285   6.1845   6.1845
     7.2435   7.2435   7.2555   7.2555   8.2556   8.2556   8.3881   8.3881
     9.3963   9.3963   9.4311   9.4311  10.4953  10.4953  10.5024  10.5024
    11.6840  11.6840  11.7448  11.7448  12.0048  12.0048  12.3723  12.3723
    13.8103  13.8103  14.1498  14.1498  15.4403  15.4403  15.4433  15.4433
    17.7415  17.7415  17.8508  17.8508  23.0856  23.1491

     occupation numbers 
     1.0000   1.0000   1.0000   1.0000   1.0000   1.0000   1.0000   1.0000
     1.0000   1.0000   1.0000   1.0000   1.0000   1.0000   1.0000   1.0000
     1.0000   1.0000   1.0000   1.0000   1.0000   1.0000   1.0000   1.0000
     1.0000   1.0000   1.0000   1.0000   1.0000   1.0000   1.0000   1.0000
     1.0000   1.0000   1.0000   1.0000   1.0000   1.0000   1.0000   1.0000
     1.0000   1.0000   1.0000   1.0000   1.0000   1.0000   1.0000   1.0000
     1.0000   1.0000   1.0000   1.0000   1.0000   1.0000   1.0000   1.0000
     0.8000   0.8000  -0.0000  -0.0000  -0.0000  -0.0000  -0.0000  -0.0000
    -0.0000  -0.0000  -0.0000  -0.0000  -0.0000  -0.0000

          k =-0.5000-0.5000 0.0000 (  5412 PWs)   bands (ev):

   -79.3789 -79.3789 -79.3789 -79.3789 -46.2170 -46.2170 -46.2170 -46.2170
   -32.7569 -32.7569 -32.7569 -32.7569 -32.6113 -32.6113 -32.6113 -32.6113
    -6.4150  -6.4150  -6.4150  -6.4150  -5.0392  -5.0392  -5.0392  -5.0392
     4.3982   4.3982   4.3982   4.3982   6.0109   6.0109   6.0109   6.0109
     8.7373   8.7373   8.7373   8.7373   8.7754   8.7754   8.7754   8.7754
     9.5919   9.5919   9.5919   9.5919  10.3573  10.3573  10.3573  10.3573
    11.1234  11.1234  11.1234  11.1234  11.7484  11.7484  11.7484  11.7484
    14.0549  14.0549  14.0549  14.0549  16.2372  16.2372  16.2372  16.2372
    17.9269  17.9269  17.9269  17.9269  22.3941  22.8029

     occupation numbers 
     1.0000   1.0000   1.0000   1.0000   1.0000   1.0000   1.0000   1.0000
     1.0000   1.0000   1.0000   1.0000   1.0000   1.0000   1.0000   1.0000
     1.0000   1.0000   1.0000   1.0000   1.0000   1.0000   1.0000   1.0000
     1.0000   1.0000   1.0000   1.0000   1.0000   1.0000   1.0000   1.0000
     1.0000   1.0000   1.0000   1.0000   1.0000   1.0000   1.0000   1.0000
     1.0000   1.0000   1.0000   1.0000   1.0000   1.0000   1.0000   1.0000
     1.0000   1.0000   1.0000   1.0000   1.0000   1.0000   1.0000   1.0000
    -0.0000  -0.0000  -0.0000  -0.0000  -0.0000  -0.0000  -0.0000  -0.0000
    -0.0000  -0.0000  -0.0000  -0.0000  -0.0000  -0.0000

          k =-0.5000-0.5000 0.1583 (  5404 PWs)   bands (ev):

   -79.3786 -79.3786 -79.3786 -79.3786 -46.2183 -46.2183 -46.2183 -46.2183
   -32.7619 -32.7619 -32.7619 -32.7619 -32.6146 -32.6146 -32.6146 -32.6146
    -6.3256  -6.3256  -6.3256  -6.3256  -5.0966  -5.0966  -5.0966  -5.0966
     4.5297   4.5297   4.5297   4.5297   6.0116   6.0116   6.0116   6.0116
     8.7724   8.7724   8.7724   8.7724   8.9496   8.9496   8.9496   8.9496
     9.1172   9.1172   9.1172   9.1172   9.9724   9.9724   9.9724   9.9724
    11.4825  11.4825  11.4825  11.4825  12.0611  12.0611  12.0611  12.0611
    13.9221  13.9221  13.9221  13.9221  16.4023  16.4023  16.4023  16.4023
    17.6379  17.6379  17.6379  17.6379  22.6075  22.6075

     occupation numbers 
     1.0000   1.0000   1.0000   1.0000   1.0000   1.0000   1.0000   1.0000
     1.0000   1.0000   1.0000   1.0000   1.0000   1.0000   1.0000   1.0000
     1.0000   1.0000   1.0000   1.0000   1.0000   1.0000   1.0000   1.0000
     1.0000   1.0000   1.0000   1.0000   1.0000   1.0000   1.0000   1.0000
     1.0000   1.0000   1.0000   1.0000   1.0000   1.0000   1.0000   1.0000
     1.0000   1.0000   1.0000   1.0000   1.0000   1.0000   1.0000   1.0000
     1.0000   1.0000   1.0000   1.0000   1.0000   1.0000   1.0000   1.0000
    -0.0353  -0.0353  -0.0353  -0.0353  -0.0000  -0.0000  -0.0000  -0.0000
    -0.0000  -0.0000  -0.0000  -0.0000  -0.0000  -0.0000

          k =-0.5000-0.5000 0.3166 (  5380 PWs)   bands (ev):

   -79.3779 -79.3779 -79.3779 -79.3779 -46.2217 -46.2217 -46.2217 -46.2217
   -32.7765 -32.7765 -32.7765 -32.7765 -32.6211 -32.6211 -32.6211 -32.6211
    -6.0941  -6.0941  -6.0941  -6.0941  -5.2383  -5.2383  -5.2383  -5.2383
     4.8869   4.8869   4.8869   4.8869   6.0471   6.0471   6.0471   6.0471
     8.0662   8.0662   8.0662   8.0662   8.9591   8.9591   8.9591   8.9591
     9.1563   9.1563   9.1563   9.1563   9.7875   9.7875   9.7875   9.7875
    11.8552  11.8552  11.8552  11.8552  12.5773  12.5773  12.5773  12.5773
    13.5788  13.5788  13.5788  13.5788  16.6315  16.6315  16.6315  16.6315
    17.1299  17.1299  17.1299  17.1299  22.8862  22.8862

     occupation numbers 
     1.0000   1.0000   1.0000   1.0000   1.0000   1.0000   1.0000   1.0000
     1.0000   1.0000   1.0000   1.0000   1.0000   1.0000   1.0000   1.0000
     1.0000   1.0000   1.0000   1.0000   1.0000   1.0000   1.0000   1.0000
     1.0000   1.0000   1.0000   1.0000   1.0000   1.0000   1.0000   1.0000
     1.0000   1.0000   1.0000   1.0000   1.0000   1.0000   1.0000   1.0000
     1.0000   1.0000   1.0000   1.0000   1.0000   1.0000   1.0000   1.0000
     1.0000   1.0000   1.0000   1.0000   1.0000   1.0000   1.0000   1.0000
     1.0000   1.0000   1.0000   1.0000  -0.0000  -0.0000  -0.0000  -0.0000
    -0.0000  -0.0000  -0.0000  -0.0000  -0.0000  -0.0000

          k =-0.5000-0.5000 0.4749 (  5340 PWs)   bands (ev):

   -79.3772 -79.3772 -79.3772 -79.3772 -46.2254 -46.2254 -46.2254 -46.2254
   -32.7960 -32.7960 -32.7960 -32.7960 -32.6253 -32.6253 -32.6253 -32.6253
    -5.8226  -5.8226  -5.8226  -5.8226  -5.3913  -5.3913  -5.3913  -5.3913
     5.3458   5.3458   5.3458   5.3458   6.1393   6.1393   6.1393   6.1393
     7.2184   7.2184   7.2184   7.2184   8.5951   8.5951   8.5951   8.5951
     9.3841   9.3841   9.3841   9.3841  10.2660  10.2660  10.2660  10.2660
    11.9779  11.9779  11.9779  11.9779  12.8637  12.8637  12.8637  12.8637
    13.2941  13.2941  13.2941  13.2941  16.3532  16.3532  16.3532  16.3532
    17.0559  17.0559  17.0559  17.0559  23.0681  23.0681

     occupation numbers 
     1.0000   1.0000   1.0000   1.0000   1.0000   1.0000   1.0000   1.0000
     1.0000   1.0000   1.0000   1.0000   1.0000   1.0000   1.0000   1.0000
     1.0000   1.0000   1.0000   1.0000   1.0000   1.0000   1.0000   1.0000
     1.0000   1.0000   1.0000   1.0000   1.0000   1.0000   1.0000   1.0000
     1.0000   1.0000   1.0000   1.0000   1.0000   1.0000   1.0000   1.0000
     1.0000   1.0000   1.0000   1.0000   1.0000   1.0000   1.0000   1.0000
     1.0000   1.0000   1.0000   1.0000   1.0000   1.0000   1.0000   1.0000
     1.0000   1.0000   1.0000   1.0000  -0.0000  -0.0000  -0.0000  -0.0000
    -0.0000  -0.0000  -0.0000  -0.0000  -0.0000  -0.0000

          k =-0.5000-0.5000 0.6332 (  5372 PWs)   bands (ev):

   -79.3767 -79.3767 -79.3767 -79.3767 -46.2279 -46.2279 -46.2279 -46.2279
   -32.8100 -32.8100 -32.8100 -32.8100 -32.6266 -32.6266 -32.6266 -32.6266
    -5.6502  -5.6502  -5.6502  -5.6502  -5.4763  -5.4763  -5.4763  -5.4763
     5.6878   5.6878   5.6878   5.6878   6.2265   6.2265   6.2265   6.2265
     6.7284   6.7284   6.7284   6.7284   8.3030   8.3030   8.3030   8.3030
     9.6213   9.6213   9.6213   9.6213  10.6174  10.6174  10.6174  10.6174
    11.9511  11.9511  11.9511  11.9511  12.6608  12.6608  12.6608  12.6608
    13.4209  13.4209  13.4209  13.4209  16.1065  16.1065  16.1065  16.1065
    17.0336  17.0336  17.0336  17.0336  23.0761  23.0761

     occupation numbers 
     1.0000   1.0000   1.0000   1.0000   1.0000   1.0000   1.0000   1.0000
     1.0000   1.0000   1.0000   1.0000   1.0000   1.0000   1.0000   1.0000
     1.0000   1.0000   1.0000   1.0000   1.0000   1.0000   1.0000   1.0000
     1.0000   1.0000   1.0000   1.0000   1.0000   1.0000   1.0000   1.0000
     1.0000   1.0000   1.0000   1.0000   1.0000   1.0000   1.0000   1.0000
     1.0000   1.0000   1.0000   1.0000   1.0000   1.0000   1.0000   1.0000
     1.0000   1.0000   1.0000   1.0000   1.0000   1.0000   1.0000   1.0000
     1.0000   1.0000   1.0000   1.0000  -0.0000  -0.0000  -0.0000  -0.0000
    -0.0000  -0.0000  -0.0000  -0.0000  -0.0000  -0.0000

     the Fermi energy is    13.8364 ev

!    total energy              =    -553.07999130 Ry
     estimated scf accuracy    <          2.2E-11 Ry
     smearing contrib. (-TS)   =      -0.00003622 Ry
     internal energy E=F+TS    =    -553.07995508 Ry

     The total energy is F=E-TS. E is the sum of the following terms:
     one-electron contribution =    -190.91151344 Ry
     hartree contribution      =     122.73181043 Ry
     xc contribution           =     -69.91424155 Ry
     ewald contribution        =    -414.98601052 Ry

     convergence has been achieved in  10 iterations

     Forces acting on atoms (cartesian axes, Ry/au):

     atom    1 type  2   force =     0.00000000    0.00000000    0.00000000
     atom    2 type  2   force =     0.00000000    0.00000000    0.00000000
     atom    3 type  1   force =     0.00045476   -0.00045476    0.00000000
     atom    4 type  1   force =    -0.00045476   -0.00045476    0.00000000
     atom    5 type  1   force =     0.00045476    0.00045476    0.00000000
     atom    6 type  1   force =    -0.00045476    0.00045476    0.00000000
     The non-local contrib.  to forces
     atom    1 type  2   force =     0.00000000    0.00000000    0.00000000
     atom    2 type  2   force =     0.00000000    0.00000000    0.00000000
     atom    3 type  1   force =    -0.05429563    0.05429563   -0.00000000
     atom    4 type  1   force =     0.05429563    0.05429563    0.00000000
     atom    5 type  1   force =    -0.05429563   -0.05429563    0.00000000
     atom    6 type  1   force =     0.05429563   -0.05429563   -0.00000000
     The ionic contribution  to forces
     atom    1 type  2   force =    -0.00000000   -0.00000000    0.00000000
     atom    2 type  2   force =     0.00000000    0.00000000   -0.00000000
     atom    3 type  1   force =     1.42937233   -1.42937233    0.00000000
     atom    4 type  1   force =    -1.42937233   -1.42937233   -0.00000000
     atom    5 type  1   force =     1.42937233    1.42937233   -0.00000000
     atom    6 type  1   force =    -1.42937233    1.42937233    0.00000000
     The local contribution  to forces
     atom    1 type  2   force =     0.00000000    0.00000000   -0.00000000
     atom    2 type  2   force =     0.00000000    0.00000000    0.00000000
     atom    3 type  1   force =    -1.37462106    1.37462106    0.00000000
     atom    4 type  1   force =     1.37462106    1.37462106    0.00000000
     atom    5 type  1   force =    -1.37462106   -1.37462106    0.00000000
     atom    6 type  1   force =     1.37462106   -1.37462106    0.00000000
     The core correction contribution to forces
     atom    1 type  2   force =     0.00000000    0.00000000    0.00000000
     atom    2 type  2   force =     0.00000000    0.00000000    0.00000000
     atom    3 type  1   force =     0.00000000    0.00000000    0.00000000
     atom    4 type  1   force =     0.00000000    0.00000000    0.00000000
     atom    5 type  1   force =     0.00000000    0.00000000    0.00000000
     atom    6 type  1   force =     0.00000000    0.00000000    0.00000000
     The Hubbard contrib.    to forces
     atom    1 type  2   force =     0.00000000    0.00000000    0.00000000
     atom    2 type  2   force =     0.00000000    0.00000000    0.00000000
     atom    3 type  1   force =     0.00000000    0.00000000    0.00000000
     atom    4 type  1   force =     0.00000000    0.00000000    0.00000000
     atom    5 type  1   force =     0.00000000    0.00000000    0.00000000
     atom    6 type  1   force =     0.00000000    0.00000000    0.00000000
     The SCF correction term to forces
     atom    1 type  2   force =     0.00000000   -0.00000000    0.00000000
     atom    2 type  2   force =    -0.00000000    0.00000000   -0.00000000
     atom    3 type  1   force =    -0.00000090    0.00000090    0.00000000
     atom    4 type  1   force =     0.00000090    0.00000090   -0.00000000
     atom    5 type  1   force =    -0.00000090   -0.00000090   -0.00000000
     atom    6 type  1   force =     0.00000090   -0.00000090    0.00000000

     Total force =     0.001286     Total SCF correction =     0.000003


     Computing stress (Cartesian axis) and pressure

          total   stress  (Ry/bohr**3)                   (kbar)     P=      -20.23
  -0.00011960   0.00000000   0.00000000          -17.59        0.00        0.00
   0.00000000  -0.00011960   0.00000000            0.00      -17.59        0.00
   0.00000000   0.00000000  -0.00017330            0.00        0.00      -25.49

     kinetic stress (kbar)  48458.82      0.00      0.00
                                0.00  48458.82      0.00
                                0.00      0.00  47516.33

     local   stress (kbar) -12693.98     -0.00      0.00
                               -0.00 -12693.98     -0.00
                                0.00     -0.00 -44386.12

     nonloc. stress (kbar)  14529.49      0.00      0.00
                                0.00  14529.49      0.00
                                0.00      0.00  14739.62

     hartree stress (kbar)   9612.41      0.00     -0.00
                                0.00   9612.41      0.00
                               -0.00      0.00  21375.61

     exc-cor stress (kbar)  -7288.12      0.00     -0.00
                                0.00  -7288.12     -0.00
                               -0.00     -0.00  -7263.48

     corecor stress (kbar)      0.00      0.00      0.00
                                0.00      0.00      0.00
                                0.00      0.00      0.00

     ewald   stress (kbar) -52636.21     -0.00     -0.00
                               -0.00 -52636.21     -0.00
                               -0.00     -0.00 -32007.45

     hubbard stress (kbar)      0.00      0.00      0.00
                                0.00      0.00      0.00
                                0.00      0.00      0.00

     DFT-D   stress (kbar)      0.00      0.00      0.00
                                0.00      0.00      0.00
                                0.00      0.00      0.00

     XDM     stress (kbar)      0.00      0.00      0.00
                                0.00      0.00      0.00
                                0.00      0.00      0.00

     dft-nl  stress (kbar)      0.00      0.00      0.00
                                0.00      0.00      0.00
                                0.00      0.00      0.00

     TS-vdW  stress (kbar)      0.00      0.00      0.00
                                0.00      0.00      0.00
                                0.00      0.00      0.00


                                0.00      0.00      0.00
                                0.00      0.00      0.00


                                0.00      0.00      0.00


     Writing all to output data dir tmp/espresso.save/
 
     init_run     :      3.08s CPU      1.61s WALL (       1 calls)
     electrons    :    102.49s CPU     52.51s WALL (       1 calls)
     forces       :      5.17s CPU      2.65s WALL (       1 calls)
     stress       :      7.21s CPU      3.64s WALL (       1 calls)

     Called by init_run:
     wfcinit      :      3.02s CPU      1.55s WALL (       1 calls)
     wfcinit:atom :      0.01s CPU      0.01s WALL (      30 calls)
     wfcinit:wfcr :      2.94s CPU      1.50s WALL (      30 calls)
     potinit      :      0.02s CPU      0.01s WALL (       1 calls)
     hinit0       :      0.03s CPU      0.03s WALL (       1 calls)

     Called by electrons:
     c_bands      :     93.81s CPU     48.03s WALL (      10 calls)
     sum_band     :      8.54s CPU      4.38s WALL (      10 calls)
     v_of_rho     :      0.05s CPU      0.03s WALL (      11 calls)
     v_h          :      0.00s CPU      0.00s WALL (      11 calls)
     v_xc         :      0.04s CPU      0.02s WALL (      11 calls)
     mix_rho      :      0.05s CPU      0.02s WALL (      10 calls)

     Called by c_bands:
     init_us_2    :      0.28s CPU      0.15s WALL (     690 calls)
     init_us_2:cp :      0.27s CPU      0.15s WALL (     690 calls)
     cegterg      :     86.66s CPU     44.38s WALL (     300 calls)

     Called by sum_band:
     sum_band:wei :      0.06s CPU      0.03s WALL (      10 calls)
     sum_band:loo :      8.46s CPU      4.34s WALL (      10 calls)
     sum_band:buf :      0.05s CPU      0.03s WALL (     300 calls)
     sum_band:ini :      0.09s CPU      0.05s WALL (     300 calls)

     Called by *egterg:
     cdiaghg      :     12.78s CPU      6.50s WALL (    1025 calls)
     cegterg:over :      5.41s CPU      2.74s WALL (     725 calls)
     cegterg:upda :      4.21s CPU      2.15s WALL (     725 calls)
     cegterg:last :      7.42s CPU      3.77s WALL (     600 calls)
     cdiaghg:chol :      0.59s CPU      0.30s WALL (    1025 calls)
     cdiaghg:inve :      0.09s CPU      0.05s WALL (    1025 calls)
     cdiaghg:para :      1.32s CPU      0.67s WALL (    2050 calls)
     h_psi        :     57.51s CPU     29.57s WALL (    1055 calls)
     g_psi        :      0.08s CPU      0.04s WALL (     725 calls)

     Called by h_psi:
     h_psi:calbec :      6.91s CPU      3.62s WALL (    1055 calls)
     vloc_psi     :     40.55s CPU     20.84s WALL (    1055 calls)
     add_vuspsi   :      9.91s CPU      5.05s WALL (    1055 calls)

     General routines
     calbec       :      8.51s CPU      4.45s WALL (    1205 calls)
     fft          :      0.06s CPU      0.03s WALL (     150 calls)
     ffts         :      0.01s CPU      0.01s WALL (      40 calls)
     fftw         :     45.91s CPU     23.59s WALL (  257544 calls)
 
     Parallel routines
 
     PWSCF        :   2m 1.99s CPU   1m 5.55s WALL

 
   This run was terminated on:  11:14:55  10Apr2022            

=------------------------------------------------------------------------------=
   JOB DONE.
=------------------------------------------------------------------------------=
