
     Program PWSCF v.7.0 starts on 10Apr2022 at 10:42:40 

     This program is part of the open-source Quantum ESPRESSO suite
     for quantum simulation of materials; please cite
         "P. Giannozzi et al., J. Phys.:Condens. Matter 21 395502 (2009);
         "P. Giannozzi et al., J. Phys.:Condens. Matter 29 465901 (2017);
         "P. Giannozzi et al., J. Chem. Phys. 152 154105 (2020);
          URL http://www.quantum-espresso.org", 
     in publications or presentations arising from this work. More details at
     http://www.quantum-espresso.org/quote

     Parallel version (MPI & OpenMP), running on      64 processor cores
     Number of MPI processes:                32
     Threads/MPI process:                     2

     MPI processes distributed on     1 nodes
     R & G space division:  proc/nbgrp/npool/nimage =      32
     230642 MiB available memory on the printing compute node when the environment starts
 
     Reading input from kpoints_887.pwi
Warning: card &CELL ignored
Warning: card / ignored

     Current dimensions of program PWSCF are:
     Max number of different atomic species (ntypx) = 10
     Max number of k-points (npk) =  40000
     Max angular momentum in pseudopotentials (lmaxx) =  4

     Subspace diagonalization in iterative solution of the eigenvalue problem:
     one sub-group per band group will be used
     scalapack distributed-memory algorithm (size of sub-group:  5*  5 procs)

 
     Parallelization info
     --------------------
     sticks:   dense  smooth     PW     G-vecs:    dense   smooth      PW
     Min          58      58     17                 1342     1342     209
     Max          59      59     18                 1345     1345     212
     Sum        1885    1885    553                42999    42999    6723
 
     Using Slab Decomposition
 

     Title: 
     IrO2 Unit Cell                                                             


     bravais-lattice index     =            6
     lattice parameter (alat)  =       8.5888  a.u.
     unit-cell volume          =     444.6868 (a.u.)^3
     number of atoms/cell      =            6
     number of atomic types    =            2
     number of electrons       =        58.00
     number of Kohn-Sham states=           70
     kinetic-energy cutoff     =      80.0000  Ry
     charge density cutoff     =     320.0000  Ry
     scf convergence threshold =      1.0E-09
     mixing beta               =       0.7000
     number of iterations used =            8  plain     mixing
     Exchange-correlation= PBE
                           (   1   4   3   4   0   0   0)
     Non magnetic calculation with spin-orbit


     celldm(1)=   8.588800  celldm(2)=   0.000000  celldm(3)=   0.701870
     celldm(4)=   0.000000  celldm(5)=   0.000000  celldm(6)=   0.000000

     crystal axes: (cart. coord. in units of alat)
               a(1) = (   1.000000   0.000000   0.000000 )  
               a(2) = (   0.000000   1.000000   0.000000 )  
               a(3) = (   0.000000   0.000000   0.701870 )  

     reciprocal axes: (cart. coord. in units 2 pi/alat)
               b(1) = (  1.000000  0.000000  0.000000 )  
               b(2) = (  0.000000  1.000000  0.000000 )  
               b(3) = (  0.000000  0.000000  1.424765 )  


     PseudoPot. # 1 for O  read from file:
     ../../XX_PSEUDO/O_ONCV_PBE_fr.upf
     MD5 check sum: 59c925217d3b58c6d762355590b68b09
     Pseudo is Norm-conserving, Zval =  6.0
     Generated using ONCVPSP code by D. R. Hamann
     Using radial grid of  936 points,  6 beta functions with: 
                l(1) =   0
                l(2) =   0
                l(3) =   1
                l(4) =   1
                l(5) =   1
                l(6) =   1

     PseudoPot. # 2 for Ir read from file:
     ../../XX_PSEUDO/Ir_ONCV_PBE_fr.upf
     MD5 check sum: 924e909c4146afa09f62ee3401806954
     Pseudo is Norm-conserving, Zval = 17.0
     Generated using ONCVPSP code by D. R. Hamann
     Using radial grid of 1310 points, 14 beta functions with: 
                l(1) =   0
                l(2) =   0
                l(3) =   1
                l(4) =   1
                l(5) =   1
                l(6) =   1
                l(7) =   2
                l(8) =   2
                l(9) =   2
               l(10) =   2
               l(11) =   3
               l(12) =   3
               l(13) =   3
               l(14) =   3

     atomic species   valence    mass     pseudopotential
        O              6.00    15.99900     O ( 1.00)
        Ir            17.00   192.21700     Ir( 1.00)

     16 Sym. Ops., with inversion, found ( 8 have fractional translation)


                                    s                        frac. trans.

      isym =  1     identity                                     

 cryst.   s( 1) = (     1          0          0      )
                  (     0          1          0      )
                  (     0          0          1      )

 cart.    s( 1) = (  1.0000000  0.0000000  0.0000000 )
                  (  0.0000000  1.0000000  0.0000000 )
                  (  0.0000000  0.0000000  1.0000000 )


      isym =  2     180 deg rotation - cart. axis [0,0,1]        

 cryst.   s( 2) = (    -1          0          0      )
                  (     0         -1          0      )
                  (     0          0          1      )

 cart.    s( 2) = ( -1.0000000  0.0000000  0.0000000 )
                  (  0.0000000 -1.0000000  0.0000000 )
                  (  0.0000000  0.0000000  1.0000000 )


      isym =  3     180 deg rotation - cart. axis [0,1,0]        

 cryst.   s( 3) = (    -1          0          0      )    f =(  0.5000000 )
                  (     0          1          0      )       ( -0.5000000 )
                  (     0          0         -1      )       (  0.5000000 )

 cart.    s( 3) = ( -1.0000000  0.0000000  0.0000000 )    f =(  0.5000000 )
                  (  0.0000000  1.0000000  0.0000000 )       ( -0.5000000 )
                  (  0.0000000  0.0000000 -1.0000000 )       (  0.3509351 )


      isym =  4     180 deg rotation - cart. axis [1,0,0]        

 cryst.   s( 4) = (     1          0          0      )    f =( -0.5000000 )
                  (     0         -1          0      )       (  0.5000000 )
                  (     0          0         -1      )       (  0.5000000 )

 cart.    s( 4) = (  1.0000000  0.0000000  0.0000000 )    f =( -0.5000000 )
                  (  0.0000000 -1.0000000  0.0000000 )       (  0.5000000 )
                  (  0.0000000  0.0000000 -1.0000000 )       (  0.3509351 )


      isym =  5     180 deg rotation - cart. axis [1,1,0]        

 cryst.   s( 5) = (     0          1          0      )
                  (     1          0          0      )
                  (     0          0         -1      )

 cart.    s( 5) = (  0.0000000  1.0000000  0.0000000 )
                  (  1.0000000  0.0000000  0.0000000 )
                  (  0.0000000  0.0000000 -1.0000000 )


      isym =  6     180 deg rotation - cart. axis [1,-1,0]       

 cryst.   s( 6) = (     0         -1          0      )
                  (    -1          0          0      )
                  (     0          0         -1      )

 cart.    s( 6) = (  0.0000000 -1.0000000  0.0000000 )
                  ( -1.0000000  0.0000000  0.0000000 )
                  (  0.0000000  0.0000000 -1.0000000 )


      isym =  7      90 deg rotation - cart. axis [0,0,-1]       

 cryst.   s( 7) = (     0         -1          0      )    f =( -0.5000000 )
                  (     1          0          0      )       (  0.5000000 )
                  (     0          0          1      )       ( -0.5000000 )

 cart.    s( 7) = (  0.0000000  1.0000000  0.0000000 )    f =( -0.5000000 )
                  ( -1.0000000  0.0000000  0.0000000 )       (  0.5000000 )
                  (  0.0000000  0.0000000  1.0000000 )       ( -0.3509351 )


      isym =  8      90 deg rotation - cart. axis [0,0,1]        

 cryst.   s( 8) = (     0          1          0      )    f =(  0.5000000 )
                  (    -1          0          0      )       ( -0.5000000 )
                  (     0          0          1      )       ( -0.5000000 )

 cart.    s( 8) = (  0.0000000 -1.0000000  0.0000000 )    f =(  0.5000000 )
                  (  1.0000000  0.0000000  0.0000000 )       ( -0.5000000 )
                  (  0.0000000  0.0000000  1.0000000 )       ( -0.3509351 )


      isym =  9     inversion                                    

 cryst.   s( 9) = (    -1          0          0      )
                  (     0         -1          0      )
                  (     0          0         -1      )

 cart.    s( 9) = ( -1.0000000  0.0000000  0.0000000 )
                  (  0.0000000 -1.0000000  0.0000000 )
                  (  0.0000000  0.0000000 -1.0000000 )


      isym = 10     inv. 180 deg rotation - cart. axis [0,0,1]   

 cryst.   s(10) = (     1          0          0      )
                  (     0          1          0      )
                  (     0          0         -1      )

 cart.    s(10) = (  1.0000000  0.0000000  0.0000000 )
                  (  0.0000000  1.0000000  0.0000000 )
                  (  0.0000000  0.0000000 -1.0000000 )


      isym = 11     inv. 180 deg rotation - cart. axis [0,1,0]   

 cryst.   s(11) = (     1          0          0      )    f =( -0.5000000 )
                  (     0         -1          0      )       (  0.5000000 )
                  (     0          0          1      )       ( -0.5000000 )

 cart.    s(11) = (  1.0000000  0.0000000  0.0000000 )    f =( -0.5000000 )
                  (  0.0000000 -1.0000000  0.0000000 )       (  0.5000000 )
                  (  0.0000000  0.0000000  1.0000000 )       ( -0.3509351 )


      isym = 12     inv. 180 deg rotation - cart. axis [1,0,0]   

 cryst.   s(12) = (    -1          0          0      )    f =(  0.5000000 )
                  (     0          1          0      )       ( -0.5000000 )
                  (     0          0          1      )       ( -0.5000000 )

 cart.    s(12) = ( -1.0000000  0.0000000  0.0000000 )    f =(  0.5000000 )
                  (  0.0000000  1.0000000  0.0000000 )       ( -0.5000000 )
                  (  0.0000000  0.0000000  1.0000000 )       ( -0.3509351 )


      isym = 13     inv. 180 deg rotation - cart. axis [1,1,0]   

 cryst.   s(13) = (     0         -1          0      )
                  (    -1          0          0      )
                  (     0          0          1      )

 cart.    s(13) = (  0.0000000 -1.0000000  0.0000000 )
                  ( -1.0000000  0.0000000  0.0000000 )
                  (  0.0000000  0.0000000  1.0000000 )


      isym = 14     inv. 180 deg rotation - cart. axis [1,-1,0]  

 cryst.   s(14) = (     0          1          0      )
                  (     1          0          0      )
                  (     0          0          1      )

 cart.    s(14) = (  0.0000000  1.0000000  0.0000000 )
                  (  1.0000000  0.0000000  0.0000000 )
                  (  0.0000000  0.0000000  1.0000000 )


      isym = 15     inv.  90 deg rotation - cart. axis [0,0,-1]  

 cryst.   s(15) = (     0          1          0      )    f =(  0.5000000 )
                  (    -1          0          0      )       ( -0.5000000 )
                  (     0          0         -1      )       (  0.5000000 )

 cart.    s(15) = (  0.0000000 -1.0000000  0.0000000 )    f =(  0.5000000 )
                  (  1.0000000  0.0000000  0.0000000 )       ( -0.5000000 )
                  (  0.0000000  0.0000000 -1.0000000 )       (  0.3509351 )


      isym = 16     inv.  90 deg rotation - cart. axis [0,0,1]   

 cryst.   s(16) = (     0         -1          0      )    f =( -0.5000000 )
                  (     1          0          0      )       (  0.5000000 )
                  (     0          0         -1      )       (  0.5000000 )

 cart.    s(16) = (  0.0000000  1.0000000  0.0000000 )    f =( -0.5000000 )
                  ( -1.0000000  0.0000000  0.0000000 )       (  0.5000000 )
                  (  0.0000000  0.0000000 -1.0000000 )       (  0.3509351 )


     double point group D_4h(4/mmm)
     there are 14 classes and  4 irreducible representations
     the character table:

       E     -E    2C4   -2C4   C2    2C2' 2C2'' i     -i    2S4   -2S4   s_h 
                               -C2   -2C2' -2C2'                         -s_h 
G_6+   2.00 -2.00  1.41 -1.41  0.00  0.00  0.00  2.00 -2.00  1.41 -1.41  0.00
G_7+   2.00 -2.00 -1.41  1.41  0.00  0.00  0.00  2.00 -2.00 -1.41  1.41  0.00
G_6-   2.00 -2.00  1.41 -1.41  0.00  0.00  0.00 -2.00  2.00 -1.41  1.41  0.00
G_7-   2.00 -2.00 -1.41  1.41  0.00  0.00  0.00 -2.00  2.00  1.41 -1.41  0.00

        2s_v  2s_d
       -2s_v -2s_d
G_6+   0.00  0.00
G_7+   0.00  0.00
G_6-   0.00  0.00
G_7-   0.00  0.00

     the symmetry operations in each class and the name of the first element:

     E             1
          identity                                               
     -E           -1
          identity E                                             
     2C4           7    8
           90 deg rotation - cart. axis [0,0,-1]                 
     -2C4         -7   -8
           90 deg rotation - cart. axis [0,0,-1] E               
      C2  -C2      2   -2
          180 deg rotation - cart. axis [0,0,1]                  
      2C2'-2C2'    3   -3    4   -4
          180 deg rotation - cart. axis [0,1,0]                  
     2C2''-2C2'    5   -5   -6    6
          180 deg rotation - cart. axis [1,1,0]                  
     i             9
          inversion                                              
     -i           -9
          inversion E                                            
     2S4          15   16
          inv.  90 deg rotation - cart. axis [0,0,-1]            
     -2S4        -15  -16
          inv.  90 deg rotation - cart. axis [0,0,-1] E          
      s_h -s_h    10  -10
          inv. 180 deg rotation - cart. axis [0,0,1]             
      2s_v-2s_v   11  -11   12  -12
          inv. 180 deg rotation - cart. axis [0,1,0]             
      2s_d-2s_d   13  -13  -14   14
          inv. 180 deg rotation - cart. axis [1,1,0]             

   Cartesian axes

     site n.     atom                  positions (alat units)
         1           Ir  tau(   1) = (   0.0000000   0.0000000   0.0000000  )
         2           Ir  tau(   2) = (   0.5000000   0.5000000   0.3509351  )
         3           O   tau(   3) = (   0.1916000   0.8084000   0.3509351  )
         4           O   tau(   4) = (   0.3084000   0.3084000   0.0000000  )
         5           O   tau(   5) = (   0.6916000   0.6916000   0.0000000  )
         6           O   tau(   6) = (   0.8084000   0.1916000   0.3509351  )

   Crystallographic axes

     site n.     atom                  positions (cryst. coord.)
         1           Ir  tau(   1) = (  0.0000000  0.0000000  0.0000000  )
         2           Ir  tau(   2) = (  0.5000000  0.5000000  0.5000000  )
         3           O   tau(   3) = (  0.1916000  0.8084000  0.5000000  )
         4           O   tau(   4) = (  0.3084000  0.3084000  0.0000000  )
         5           O   tau(   5) = (  0.6916000  0.6916000  0.0000000  )
         6           O   tau(   6) = (  0.8084000  0.1916000  0.5000000  )

     number of k points=    60  Methfessel-Paxton smearing, width (Ry)=  0.0050
                       cart. coord. in units 2pi/alat
        k(    1) = (   0.0000000   0.0000000   0.0000000), wk =   0.0022321
        k(    2) = (   0.0000000   0.0000000   0.2035378), wk =   0.0044643
        k(    3) = (   0.0000000   0.0000000   0.4070757), wk =   0.0044643
        k(    4) = (   0.0000000   0.0000000   0.6106135), wk =   0.0044643
        k(    5) = (   0.0000000   0.1250000   0.0000000), wk =   0.0089286
        k(    6) = (   0.0000000   0.1250000   0.2035378), wk =   0.0178571
        k(    7) = (   0.0000000   0.1250000   0.4070757), wk =   0.0178571
        k(    8) = (   0.0000000   0.1250000   0.6106135), wk =   0.0178571
        k(    9) = (   0.0000000   0.2500000   0.0000000), wk =   0.0089286
        k(   10) = (   0.0000000   0.2500000   0.2035378), wk =   0.0178571
        k(   11) = (   0.0000000   0.2500000   0.4070757), wk =   0.0178571
        k(   12) = (   0.0000000   0.2500000   0.6106135), wk =   0.0178571
        k(   13) = (   0.0000000   0.3750000   0.0000000), wk =   0.0089286
        k(   14) = (   0.0000000   0.3750000   0.2035378), wk =   0.0178571
        k(   15) = (   0.0000000   0.3750000   0.4070757), wk =   0.0178571
        k(   16) = (   0.0000000   0.3750000   0.6106135), wk =   0.0178571
        k(   17) = (   0.0000000  -0.5000000   0.0000000), wk =   0.0044643
        k(   18) = (   0.0000000  -0.5000000   0.2035378), wk =   0.0089286
        k(   19) = (   0.0000000  -0.5000000   0.4070757), wk =   0.0089286
        k(   20) = (   0.0000000  -0.5000000   0.6106135), wk =   0.0089286
        k(   21) = (   0.1250000   0.1250000   0.0000000), wk =   0.0089286
        k(   22) = (   0.1250000   0.1250000   0.2035378), wk =   0.0178571
        k(   23) = (   0.1250000   0.1250000   0.4070757), wk =   0.0178571
        k(   24) = (   0.1250000   0.1250000   0.6106135), wk =   0.0178571
        k(   25) = (   0.1250000   0.2500000   0.0000000), wk =   0.0178571
        k(   26) = (   0.1250000   0.2500000   0.2035378), wk =   0.0357143
        k(   27) = (   0.1250000   0.2500000   0.4070757), wk =   0.0357143
        k(   28) = (   0.1250000   0.2500000   0.6106135), wk =   0.0357143
        k(   29) = (   0.1250000   0.3750000   0.0000000), wk =   0.0178571
        k(   30) = (   0.1250000   0.3750000   0.2035378), wk =   0.0357143
        k(   31) = (   0.1250000   0.3750000   0.4070757), wk =   0.0357143
        k(   32) = (   0.1250000   0.3750000   0.6106135), wk =   0.0357143
        k(   33) = (   0.1250000  -0.5000000   0.0000000), wk =   0.0089286
        k(   34) = (   0.1250000  -0.5000000   0.2035378), wk =   0.0178571
        k(   35) = (   0.1250000  -0.5000000   0.4070757), wk =   0.0178571
        k(   36) = (   0.1250000  -0.5000000   0.6106135), wk =   0.0178571
        k(   37) = (   0.2500000   0.2500000   0.0000000), wk =   0.0089286
        k(   38) = (   0.2500000   0.2500000   0.2035378), wk =   0.0178571
        k(   39) = (   0.2500000   0.2500000   0.4070757), wk =   0.0178571
        k(   40) = (   0.2500000   0.2500000   0.6106135), wk =   0.0178571
        k(   41) = (   0.2500000   0.3750000   0.0000000), wk =   0.0178571
        k(   42) = (   0.2500000   0.3750000   0.2035378), wk =   0.0357143
        k(   43) = (   0.2500000   0.3750000   0.4070757), wk =   0.0357143
        k(   44) = (   0.2500000   0.3750000   0.6106135), wk =   0.0357143
        k(   45) = (   0.2500000  -0.5000000   0.0000000), wk =   0.0089286
        k(   46) = (   0.2500000  -0.5000000   0.2035378), wk =   0.0178571
        k(   47) = (   0.2500000  -0.5000000   0.4070757), wk =   0.0178571
        k(   48) = (   0.2500000  -0.5000000   0.6106135), wk =   0.0178571
        k(   49) = (   0.3750000   0.3750000   0.0000000), wk =   0.0089286
        k(   50) = (   0.3750000   0.3750000   0.2035378), wk =   0.0178571
        k(   51) = (   0.3750000   0.3750000   0.4070757), wk =   0.0178571
        k(   52) = (   0.3750000   0.3750000   0.6106135), wk =   0.0178571
        k(   53) = (   0.3750000  -0.5000000   0.0000000), wk =   0.0089286
        k(   54) = (   0.3750000  -0.5000000   0.2035378), wk =   0.0178571
        k(   55) = (   0.3750000  -0.5000000   0.4070757), wk =   0.0178571
        k(   56) = (   0.3750000  -0.5000000   0.6106135), wk =   0.0178571
        k(   57) = (  -0.5000000  -0.5000000   0.0000000), wk =   0.0022321
        k(   58) = (  -0.5000000  -0.5000000   0.2035378), wk =   0.0044643
        k(   59) = (  -0.5000000  -0.5000000   0.4070757), wk =   0.0044643
        k(   60) = (  -0.5000000  -0.5000000   0.6106135), wk =   0.0044643

                       cryst. coord.
        k(    1) = (   0.0000000   0.0000000   0.0000000), wk =   0.0022321
        k(    2) = (   0.0000000   0.0000000   0.1428571), wk =   0.0044643
        k(    3) = (   0.0000000   0.0000000   0.2857143), wk =   0.0044643
        k(    4) = (   0.0000000   0.0000000   0.4285714), wk =   0.0044643
        k(    5) = (   0.0000000   0.1250000   0.0000000), wk =   0.0089286
        k(    6) = (   0.0000000   0.1250000   0.1428571), wk =   0.0178571
        k(    7) = (   0.0000000   0.1250000   0.2857143), wk =   0.0178571
        k(    8) = (   0.0000000   0.1250000   0.4285714), wk =   0.0178571
        k(    9) = (   0.0000000   0.2500000   0.0000000), wk =   0.0089286
        k(   10) = (   0.0000000   0.2500000   0.1428571), wk =   0.0178571
        k(   11) = (   0.0000000   0.2500000   0.2857143), wk =   0.0178571
        k(   12) = (   0.0000000   0.2500000   0.4285714), wk =   0.0178571
        k(   13) = (   0.0000000   0.3750000   0.0000000), wk =   0.0089286
        k(   14) = (   0.0000000   0.3750000   0.1428571), wk =   0.0178571
        k(   15) = (   0.0000000   0.3750000   0.2857143), wk =   0.0178571
        k(   16) = (   0.0000000   0.3750000   0.4285714), wk =   0.0178571
        k(   17) = (   0.0000000  -0.5000000   0.0000000), wk =   0.0044643
        k(   18) = (   0.0000000  -0.5000000   0.1428571), wk =   0.0089286
        k(   19) = (   0.0000000  -0.5000000   0.2857143), wk =   0.0089286
        k(   20) = (   0.0000000  -0.5000000   0.4285714), wk =   0.0089286
        k(   21) = (   0.1250000   0.1250000   0.0000000), wk =   0.0089286
        k(   22) = (   0.1250000   0.1250000   0.1428571), wk =   0.0178571
        k(   23) = (   0.1250000   0.1250000   0.2857143), wk =   0.0178571
        k(   24) = (   0.1250000   0.1250000   0.4285714), wk =   0.0178571
        k(   25) = (   0.1250000   0.2500000   0.0000000), wk =   0.0178571
        k(   26) = (   0.1250000   0.2500000   0.1428571), wk =   0.0357143
        k(   27) = (   0.1250000   0.2500000   0.2857143), wk =   0.0357143
        k(   28) = (   0.1250000   0.2500000   0.4285714), wk =   0.0357143
        k(   29) = (   0.1250000   0.3750000   0.0000000), wk =   0.0178571
        k(   30) = (   0.1250000   0.3750000   0.1428571), wk =   0.0357143
        k(   31) = (   0.1250000   0.3750000   0.2857143), wk =   0.0357143
        k(   32) = (   0.1250000   0.3750000   0.4285714), wk =   0.0357143
        k(   33) = (   0.1250000  -0.5000000   0.0000000), wk =   0.0089286
        k(   34) = (   0.1250000  -0.5000000   0.1428571), wk =   0.0178571
        k(   35) = (   0.1250000  -0.5000000   0.2857143), wk =   0.0178571
        k(   36) = (   0.1250000  -0.5000000   0.4285714), wk =   0.0178571
        k(   37) = (   0.2500000   0.2500000   0.0000000), wk =   0.0089286
        k(   38) = (   0.2500000   0.2500000   0.1428571), wk =   0.0178571
        k(   39) = (   0.2500000   0.2500000   0.2857143), wk =   0.0178571
        k(   40) = (   0.2500000   0.2500000   0.4285714), wk =   0.0178571
        k(   41) = (   0.2500000   0.3750000   0.0000000), wk =   0.0178571
        k(   42) = (   0.2500000   0.3750000   0.1428571), wk =   0.0357143
        k(   43) = (   0.2500000   0.3750000   0.2857143), wk =   0.0357143
        k(   44) = (   0.2500000   0.3750000   0.4285714), wk =   0.0357143
        k(   45) = (   0.2500000  -0.5000000   0.0000000), wk =   0.0089286
        k(   46) = (   0.2500000  -0.5000000   0.1428571), wk =   0.0178571
        k(   47) = (   0.2500000  -0.5000000   0.2857143), wk =   0.0178571
        k(   48) = (   0.2500000  -0.5000000   0.4285714), wk =   0.0178571
        k(   49) = (   0.3750000   0.3750000   0.0000000), wk =   0.0089286
        k(   50) = (   0.3750000   0.3750000   0.1428571), wk =   0.0178571
        k(   51) = (   0.3750000   0.3750000   0.2857143), wk =   0.0178571
        k(   52) = (   0.3750000   0.3750000   0.4285714), wk =   0.0178571
        k(   53) = (   0.3750000  -0.5000000   0.0000000), wk =   0.0089286
        k(   54) = (   0.3750000  -0.5000000   0.1428571), wk =   0.0178571
        k(   55) = (   0.3750000  -0.5000000   0.2857143), wk =   0.0178571
        k(   56) = (   0.3750000  -0.5000000   0.4285714), wk =   0.0178571
        k(   57) = (  -0.5000000  -0.5000000   0.0000000), wk =   0.0022321
        k(   58) = (  -0.5000000  -0.5000000   0.1428571), wk =   0.0044643
        k(   59) = (  -0.5000000  -0.5000000   0.2857143), wk =   0.0044643
        k(   60) = (  -0.5000000  -0.5000000   0.4285714), wk =   0.0044643

     Dense  grid:    42999 G-vectors     FFT dimensions: (  50,  50,  36)

     Dynamical RAM for                 wfc:       0.36 MB

     Dynamical RAM for     wfc (w. buffer):      21.76 MB

     Dynamical RAM for           str. fact:       0.04 MB

     Dynamical RAM for           local pot:       0.00 MB

     Dynamical RAM for          nlocal pot:       0.46 MB

     Dynamical RAM for                qrad:      20.10 MB

     Dynamical RAM for          rho,v,vnew:       0.70 MB

     Dynamical RAM for               rhoin:       0.23 MB

     Dynamical RAM for            rho*nmix:       1.31 MB

     Dynamical RAM for           G-vectors:       0.09 MB

     Dynamical RAM for          h,s,v(r/c):       0.04 MB

     Dynamical RAM for          <psi|beta>:       0.38 MB

     Dynamical RAM for                 psi:       0.71 MB

     Dynamical RAM for                hpsi:       0.71 MB

     Dynamical RAM for      wfcinit/wfcrot:       0.67 MB

     Estimated static dynamical RAM per process >      43.75 MB

     Estimated max dynamical RAM per process >      46.91 MB

     Estimated total dynamical RAM >       1.47 GB

     Initial potential from superposition of free atoms

     starting charge      57.9997, renormalised to      58.0000
     Starting wfcs are   72 randomized atomic wfcs

     total cpu time spent up to now is        3.2 secs

     Self-consistent Calculation

     iteration #  1     ecut=    80.00 Ry     beta= 0.70
     Davidson diagonalization with overlap

---- Real-time Memory Report at c_bands before calling an iterative solver
            96 MiB given to the printing process from OS
             0 MiB allocation reported by mallinfo(arena+hblkhd)
        228591 MiB available memory on the node where the printing process lives
------------------
     ethr =  1.00E-02,  avg # of iterations =  2.7

     total cpu time spent up to now is       13.6 secs

     total energy              =    -552.42696501 Ry
     estimated scf accuracy    <       1.21411258 Ry

     iteration #  2     ecut=    80.00 Ry     beta= 0.70
     Davidson diagonalization with overlap

---- Real-time Memory Report at c_bands before calling an iterative solver
           105 MiB given to the printing process from OS
             0 MiB allocation reported by mallinfo(arena+hblkhd)
        228441 MiB available memory on the node where the printing process lives
------------------
     ethr =  2.09E-03,  avg # of iterations =  2.0

     total cpu time spent up to now is       24.9 secs

     total energy              =    -552.28195494 Ry
     estimated scf accuracy    <       4.28062946 Ry

     iteration #  3     ecut=    80.00 Ry     beta= 0.70
     Davidson diagonalization with overlap

---- Real-time Memory Report at c_bands before calling an iterative solver
           106 MiB given to the printing process from OS
             0 MiB allocation reported by mallinfo(arena+hblkhd)
        228381 MiB available memory on the node where the printing process lives
------------------
     ethr =  2.09E-03,  avg # of iterations =  2.0

     total cpu time spent up to now is       35.6 secs

     total energy              =    -553.07622642 Ry
     estimated scf accuracy    <       0.03350022 Ry

     iteration #  4     ecut=    80.00 Ry     beta= 0.70
     Davidson diagonalization with overlap

---- Real-time Memory Report at c_bands before calling an iterative solver
           108 MiB given to the printing process from OS
             0 MiB allocation reported by mallinfo(arena+hblkhd)
        228367 MiB available memory on the node where the printing process lives
------------------
     ethr =  5.78E-05,  avg # of iterations =  2.7

     total cpu time spent up to now is       46.4 secs

     total energy              =    -553.07978758 Ry
     estimated scf accuracy    <       0.00482275 Ry

     iteration #  5     ecut=    80.00 Ry     beta= 0.70
     Davidson diagonalization with overlap

---- Real-time Memory Report at c_bands before calling an iterative solver
           108 MiB given to the printing process from OS
             0 MiB allocation reported by mallinfo(arena+hblkhd)
        228364 MiB available memory on the node where the printing process lives
------------------
     ethr =  8.32E-06,  avg # of iterations =  2.4

     total cpu time spent up to now is       55.9 secs

     total energy              =    -553.08061907 Ry
     estimated scf accuracy    <       0.00024202 Ry

     iteration #  6     ecut=    80.00 Ry     beta= 0.70
     Davidson diagonalization with overlap

---- Real-time Memory Report at c_bands before calling an iterative solver
           109 MiB given to the printing process from OS
             0 MiB allocation reported by mallinfo(arena+hblkhd)
        228361 MiB available memory on the node where the printing process lives
------------------
     ethr =  4.17E-07,  avg # of iterations =  2.5

     total cpu time spent up to now is       65.6 secs

     total energy              =    -553.08065200 Ry
     estimated scf accuracy    <       0.00000813 Ry

     iteration #  7     ecut=    80.00 Ry     beta= 0.70
     Davidson diagonalization with overlap

---- Real-time Memory Report at c_bands before calling an iterative solver
           110 MiB given to the printing process from OS
             0 MiB allocation reported by mallinfo(arena+hblkhd)
        228360 MiB available memory on the node where the printing process lives
------------------
     ethr =  1.40E-08,  avg # of iterations =  2.0

     total cpu time spent up to now is       76.8 secs

     total energy              =    -553.08065478 Ry
     estimated scf accuracy    <       0.00000048 Ry

     iteration #  8     ecut=    80.00 Ry     beta= 0.70
     Davidson diagonalization with overlap

---- Real-time Memory Report at c_bands before calling an iterative solver
           112 MiB given to the printing process from OS
             0 MiB allocation reported by mallinfo(arena+hblkhd)
        228321 MiB available memory on the node where the printing process lives
------------------
     ethr =  8.29E-10,  avg # of iterations =  2.2

     total cpu time spent up to now is       86.3 secs

     total energy              =    -553.08065482 Ry
     estimated scf accuracy    <       0.00000006 Ry

     iteration #  9     ecut=    80.00 Ry     beta= 0.70
     Davidson diagonalization with overlap

---- Real-time Memory Report at c_bands before calling an iterative solver
           113 MiB given to the printing process from OS
             0 MiB allocation reported by mallinfo(arena+hblkhd)
        228322 MiB available memory on the node where the printing process lives
------------------
     ethr =  9.53E-11,  avg # of iterations =  2.5

     total cpu time spent up to now is       96.9 secs

     total energy              =    -553.08065483 Ry
     estimated scf accuracy    <          3.5E-09 Ry

     iteration # 10     ecut=    80.00 Ry     beta= 0.70
     Davidson diagonalization with overlap

---- Real-time Memory Report at c_bands before calling an iterative solver
           113 MiB given to the printing process from OS
             0 MiB allocation reported by mallinfo(arena+hblkhd)
        228313 MiB available memory on the node where the printing process lives
------------------
     ethr =  6.01E-12,  avg # of iterations =  2.7

     total cpu time spent up to now is      107.8 secs

     End of self-consistent calculation

          k = 0.0000 0.0000 0.0000 (  5409 PWs)   bands (ev):

   -79.3828 -79.3828 -79.3815 -79.3815 -46.2253 -46.2253 -46.2145 -46.2145
   -32.7643 -32.7643 -32.7538 -32.7538 -32.6209 -32.6209 -32.6064 -32.6064
    -7.0754  -7.0754  -5.9197  -5.9197  -5.0047  -5.0047  -4.8033  -4.8033
     4.2684   4.2684   4.5157   4.5157   6.0327   6.0327   6.1442   6.1442
     6.2580   6.2580   8.7850   8.7850   8.9369   8.9369   9.1945   9.1945
    10.3319  10.3319  10.9868  10.9868  10.9915  10.9915  11.0293  11.0293
    11.2055  11.2055  11.3865  11.3865  11.6448  11.6448  11.6736  11.6736
    12.0593  12.0593  14.6458  14.6458  15.0720  15.0720  17.6884  17.6884
    17.8965  17.8965  18.0455  18.0455  19.4477  19.4477

     occupation numbers 
     1.0000   1.0000   1.0000   1.0000   1.0000   1.0000   1.0000   1.0000
     1.0000   1.0000   1.0000   1.0000   1.0000   1.0000   1.0000   1.0000
     1.0000   1.0000   1.0000   1.0000   1.0000   1.0000   1.0000   1.0000
     1.0000   1.0000   1.0000   1.0000   1.0000   1.0000   1.0000   1.0000
     1.0000   1.0000   1.0000   1.0000   1.0000   1.0000   1.0000   1.0000
     1.0000   1.0000   1.0000   1.0000   1.0000   1.0000   1.0000   1.0000
     1.0000   1.0000   1.0000   1.0000   1.0000   1.0000   1.0000   1.0000
     1.0000   1.0000  -0.0000  -0.0000  -0.0000  -0.0000  -0.0000  -0.0000
    -0.0000  -0.0000  -0.0000  -0.0000  -0.0000  -0.0000

          k = 0.0000 0.0000 0.2035 (  5361 PWs)   bands (ev):

   -79.3823 -79.3823 -79.3811 -79.3811 -46.2269 -46.2269 -46.2172 -46.2172
   -32.7690 -32.7690 -32.7646 -32.7646 -32.6285 -32.6285 -32.6102 -32.6102
    -6.8926  -6.8926  -5.8267  -5.8267  -5.0890  -5.0890  -4.9166  -4.9166
     4.5358   4.5358   4.7076   4.7076   6.1911   6.1911   6.2550   6.2550
     6.4547   6.4547   8.1095   8.1095   9.0505   9.0505   9.3285   9.3285
     9.3992   9.3992  10.0039  10.0039  10.0962  10.0962  11.2238  11.2238
    11.6465  11.6465  11.6891  11.6891  11.8405  11.8405  12.4851  12.4851
    12.5518  12.5518  14.8815  14.8815  15.0628  15.0628  17.2335  17.2335
    17.5453  17.5453  18.3781  18.3781  19.1423  19.1423

     occupation numbers 
     1.0000   1.0000   1.0000   1.0000   1.0000   1.0000   1.0000   1.0000
     1.0000   1.0000   1.0000   1.0000   1.0000   1.0000   1.0000   1.0000
     1.0000   1.0000   1.0000   1.0000   1.0000   1.0000   1.0000   1.0000
     1.0000   1.0000   1.0000   1.0000   1.0000   1.0000   1.0000   1.0000
     1.0000   1.0000   1.0000   1.0000   1.0000   1.0000   1.0000   1.0000
     1.0000   1.0000   1.0000   1.0000   1.0000   1.0000   1.0000   1.0000
     1.0000   1.0000   1.0000   1.0000   1.0000   1.0000   1.0000   1.0000
     1.0000   1.0000  -0.0000  -0.0000  -0.0000  -0.0000  -0.0000  -0.0000
    -0.0000  -0.0000  -0.0000  -0.0000  -0.0000  -0.0000

          k = 0.0000 0.0000 0.4071 (  5389 PWs)   bands (ev):

   -79.3811 -79.3811 -79.3803 -79.3803 -46.2301 -46.2301 -46.2234 -46.2234
   -32.7903 -32.7903 -32.7864 -32.7864 -32.6377 -32.6377 -32.6180 -32.6180
    -6.4293  -6.4293  -5.6560  -5.6560  -5.2632  -5.2632  -5.1647  -5.1647
     5.1699   5.1699   5.2375   5.2375   6.5422   6.5422   6.5778   6.5778
     7.0104   7.0104   7.0372   7.0372   7.9927   7.9927   8.9188   8.9188
     9.1044   9.1044   9.5347   9.5347   9.8270   9.8270  10.3170  10.3170
    11.8027  11.8027  12.0816  12.0816  12.1908  12.1908  13.3688  13.3688
    13.4024  13.4024  14.3764  14.3764  15.8102  15.8102  16.5036  16.5036
    16.7927  16.7927  17.7222  17.7222  20.2842  20.2842

     occupation numbers 
     1.0000   1.0000   1.0000   1.0000   1.0000   1.0000   1.0000   1.0000
     1.0000   1.0000   1.0000   1.0000   1.0000   1.0000   1.0000   1.0000
     1.0000   1.0000   1.0000   1.0000   1.0000   1.0000   1.0000   1.0000
     1.0000   1.0000   1.0000   1.0000   1.0000   1.0000   1.0000   1.0000
     1.0000   1.0000   1.0000   1.0000   1.0000   1.0000   1.0000   1.0000
     1.0000   1.0000   1.0000   1.0000   1.0000   1.0000   1.0000   1.0000
     1.0000   1.0000   1.0000   1.0000   1.0000   1.0000   1.0000   1.0000
     1.0000   1.0000  -0.0000  -0.0000  -0.0000  -0.0000  -0.0000  -0.0000
    -0.0000  -0.0000  -0.0000  -0.0000  -0.0000  -0.0000

          k = 0.0000 0.0000 0.6106 (  5406 PWs)   bands (ev):

   -79.3801 -79.3801 -79.3798 -79.3798 -46.2318 -46.2318 -46.2294 -46.2294
   -32.8105 -32.8105 -32.8077 -32.8077 -32.6351 -32.6351 -32.6266 -32.6266
    -5.9171  -5.9171  -5.6374  -5.6374  -5.3866  -5.3866  -5.3658  -5.3658
     5.5930   5.5930   5.8142   5.8142   6.4465   6.4465   6.9653   6.9653
     7.0211   7.0211   7.0761   7.0761   7.9597   7.9597   8.2923   8.2923
     8.3895   8.3895   9.1347   9.1347   9.8623   9.8623   9.9852   9.9852
    11.8090  11.8090  12.0416  12.0416  12.7175  12.7175  13.4326  13.4326
    14.0016  14.0016  14.1085  14.1085  16.0901  16.0901  16.1414  16.1414
    16.5294  16.5294  16.8190  16.8190  22.0870  22.0870

     occupation numbers 
     1.0000   1.0000   1.0000   1.0000   1.0000   1.0000   1.0000   1.0000
     1.0000   1.0000   1.0000   1.0000   1.0000   1.0000   1.0000   1.0000
     1.0000   1.0000   1.0000   1.0000   1.0000   1.0000   1.0000   1.0000
     1.0000   1.0000   1.0000   1.0000   1.0000   1.0000   1.0000   1.0000
     1.0000   1.0000   1.0000   1.0000   1.0000   1.0000   1.0000   1.0000
     1.0000   1.0000   1.0000   1.0000   1.0000   1.0000   1.0000   1.0000
     1.0000   1.0000   1.0000   1.0000   1.0000   1.0000   1.0000   1.0000
    -0.0027  -0.0027  -0.0000  -0.0000  -0.0000  -0.0000  -0.0000  -0.0000
    -0.0000  -0.0000  -0.0000  -0.0000  -0.0000  -0.0000

          k = 0.0000 0.1250 0.0000 (  5381 PWs)   bands (ev):

   -79.3827 -79.3827 -79.3815 -79.3815 -46.2249 -46.2249 -46.2150 -46.2150
   -32.7635 -32.7635 -32.7537 -32.7537 -32.6209 -32.6209 -32.6075 -32.6075
    -7.0164  -7.0164  -5.9122  -5.9122  -5.0557  -5.0557  -4.8630  -4.8630
     4.4190   4.4190   4.6291   4.6291   6.0558   6.0558   6.1578   6.1578
     6.3554   6.3554   8.7092   8.7092   8.7134   8.7134   8.9786   8.9786
    10.0148  10.0148  10.4799  10.4799  10.7573  10.7573  11.3483  11.3483
    11.4288  11.4288  11.5480  11.5480  11.7105  11.7105  11.8485  11.8485
    12.2606  12.2606  14.8811  14.8811  14.9769  14.9769  17.6295  17.6295
    17.9615  17.9615  18.1687  18.1687  19.3064  19.3064

     occupation numbers 
     1.0000   1.0000   1.0000   1.0000   1.0000   1.0000   1.0000   1.0000
     1.0000   1.0000   1.0000   1.0000   1.0000   1.0000   1.0000   1.0000
     1.0000   1.0000   1.0000   1.0000   1.0000   1.0000   1.0000   1.0000
     1.0000   1.0000   1.0000   1.0000   1.0000   1.0000   1.0000   1.0000
     1.0000   1.0000   1.0000   1.0000   1.0000   1.0000   1.0000   1.0000
     1.0000   1.0000   1.0000   1.0000   1.0000   1.0000   1.0000   1.0000
     1.0000   1.0000   1.0000   1.0000   1.0000   1.0000   1.0000   1.0000
     1.0000   1.0000  -0.0000  -0.0000  -0.0000  -0.0000  -0.0000  -0.0000
    -0.0000  -0.0000  -0.0000  -0.0000  -0.0000  -0.0000

          k = 0.0000 0.1250 0.2035 (  5373 PWs)   bands (ev):

   -79.3822 -79.3822 -79.3811 -79.3811 -46.2265 -46.2265 -46.2176 -46.2176
   -32.7699 -32.7699 -32.7630 -32.7630 -32.6285 -32.6285 -32.6111 -32.6111
    -6.8371  -6.8371  -5.8151  -5.8151  -5.1374  -5.1374  -4.9705  -4.9705
     4.6665   4.6665   4.8189   4.8189   6.1890   6.1890   6.2515   6.2515
     6.5958   6.5958   8.0187   8.0187   8.7862   8.7862   9.0484   9.0484
     9.3069   9.3069  10.0022  10.0022  10.0633  10.0633  11.3471  11.3471
    11.4396  11.4396  11.9049  11.9049  12.0042  12.0042  12.4621  12.4621
    12.6721  12.6721  14.7727  14.7727  15.2843  15.2843  17.1130  17.1130
    17.4315  17.4315  18.6701  18.6701  19.0848  19.0848

     occupation numbers 
     1.0000   1.0000   1.0000   1.0000   1.0000   1.0000   1.0000   1.0000
     1.0000   1.0000   1.0000   1.0000   1.0000   1.0000   1.0000   1.0000
     1.0000   1.0000   1.0000   1.0000   1.0000   1.0000   1.0000   1.0000
     1.0000   1.0000   1.0000   1.0000   1.0000   1.0000   1.0000   1.0000
     1.0000   1.0000   1.0000   1.0000   1.0000   1.0000   1.0000   1.0000
     1.0000   1.0000   1.0000   1.0000   1.0000   1.0000   1.0000   1.0000
     1.0000   1.0000   1.0000   1.0000   1.0000   1.0000   1.0000   1.0000
     1.0000   1.0000  -0.0000  -0.0000  -0.0000  -0.0000  -0.0000  -0.0000
    -0.0000  -0.0000  -0.0000  -0.0000  -0.0000  -0.0000

          k = 0.0000 0.1250 0.4071 (  5387 PWs)   bands (ev):

   -79.3811 -79.3811 -79.3803 -79.3803 -46.2299 -46.2299 -46.2237 -46.2237
   -32.7935 -32.7935 -32.7830 -32.7830 -32.6377 -32.6377 -32.6183 -32.6183
    -6.3874  -6.3874  -5.6439  -5.6439  -5.2991  -5.2991  -5.1974  -5.1974
     5.2493   5.2493   5.3196   5.3196   6.4650   6.4650   6.5815   6.5815
     6.9767   6.9767   7.2351   7.2351   7.7398   7.7398   8.9745   8.9745
     9.1499   9.1499   9.4492   9.4492   9.6481   9.6481  10.4757  10.4757
    11.8006  11.8006  12.0414  12.0414  12.2724  12.2724  13.2485  13.2485
    13.4511  13.4511  14.3415  14.3415  15.9145  15.9145  16.3017  16.3017
    16.7332  16.7332  17.9679  17.9679  20.4068  20.4068

     occupation numbers 
     1.0000   1.0000   1.0000   1.0000   1.0000   1.0000   1.0000   1.0000
     1.0000   1.0000   1.0000   1.0000   1.0000   1.0000   1.0000   1.0000
     1.0000   1.0000   1.0000   1.0000   1.0000   1.0000   1.0000   1.0000
     1.0000   1.0000   1.0000   1.0000   1.0000   1.0000   1.0000   1.0000
     1.0000   1.0000   1.0000   1.0000   1.0000   1.0000   1.0000   1.0000
     1.0000   1.0000   1.0000   1.0000   1.0000   1.0000   1.0000   1.0000
     1.0000   1.0000   1.0000   1.0000   1.0000   1.0000   1.0000   1.0000
     1.0000   1.0000  -0.0000  -0.0000  -0.0000  -0.0000  -0.0000  -0.0000
    -0.0000  -0.0000  -0.0000  -0.0000  -0.0000  -0.0000

          k = 0.0000 0.1250 0.6106 (  5369 PWs)   bands (ev):

   -79.3801 -79.3801 -79.3798 -79.3798 -46.2317 -46.2317 -46.2294 -46.2294
   -32.8152 -32.8152 -32.8032 -32.8032 -32.6363 -32.6363 -32.6254 -32.6254
    -5.9100  -5.9100  -5.6582  -5.6582  -5.4068  -5.4068  -5.3288  -5.3288
     5.6287   5.6287   5.8397   5.8397   6.1987   6.1987   6.6439   6.6439
     7.2534   7.2534   7.2919   7.2919   8.1206   8.1206   8.2907   8.2907
     8.4769   8.4769   9.2822   9.2822   9.7803   9.7803   9.8729   9.8729
    11.8394  11.8394  12.0421  12.0421  12.5425  12.5425  13.2326  13.2326
    13.9696  13.9696  14.2423  14.2423  15.7594  15.7594  15.8678  15.8678
    16.8449  16.8449  17.2762  17.2762  22.1389  22.1389

     occupation numbers 
     1.0000   1.0000   1.0000   1.0000   1.0000   1.0000   1.0000   1.0000
     1.0000   1.0000   1.0000   1.0000   1.0000   1.0000   1.0000   1.0000
     1.0000   1.0000   1.0000   1.0000   1.0000   1.0000   1.0000   1.0000
     1.0000   1.0000   1.0000   1.0000   1.0000   1.0000   1.0000   1.0000
     1.0000   1.0000   1.0000   1.0000   1.0000   1.0000   1.0000   1.0000
     1.0000   1.0000   1.0000   1.0000   1.0000   1.0000   1.0000   1.0000
     1.0000   1.0000   1.0000   1.0000   1.0000   1.0000   1.0000   1.0000
    -0.0133  -0.0133  -0.0000  -0.0000  -0.0000  -0.0000  -0.0000  -0.0000
    -0.0000  -0.0000  -0.0000  -0.0000  -0.0000  -0.0000

          k = 0.0000 0.2500 0.0000 (  5376 PWs)   bands (ev):

   -79.3826 -79.3826 -79.3817 -79.3817 -46.2237 -46.2237 -46.2161 -46.2161
   -32.7612 -32.7612 -32.7537 -32.7537 -32.6207 -32.6207 -32.6104 -32.6104
    -6.8461  -6.8461  -5.9152  -5.9152  -5.1926  -5.1926  -4.9974  -4.9974
     4.8232   4.8232   4.9488   4.9488   6.1117   6.1117   6.1916   6.1916
     6.6496   6.6496   8.1678   8.1678   8.3481   8.3481   8.6747   8.6747
     9.5081   9.5081   9.6435   9.6435  10.6101  10.6101  11.3627  11.3627
    11.7030  11.7030  11.8065  11.8065  12.0457  12.0457  12.2050  12.2050
    12.6421  12.6421  14.6154  14.6154  15.5912  15.5912  17.4704  17.4704
    17.7504  17.7504  18.8474  18.8474  18.9361  18.9361

     occupation numbers 
     1.0000   1.0000   1.0000   1.0000   1.0000   1.0000   1.0000   1.0000
     1.0000   1.0000   1.0000   1.0000   1.0000   1.0000   1.0000   1.0000
     1.0000   1.0000   1.0000   1.0000   1.0000   1.0000   1.0000   1.0000
     1.0000   1.0000   1.0000   1.0000   1.0000   1.0000   1.0000   1.0000
     1.0000   1.0000   1.0000   1.0000   1.0000   1.0000   1.0000   1.0000
     1.0000   1.0000   1.0000   1.0000   1.0000   1.0000   1.0000   1.0000
     1.0000   1.0000   1.0000   1.0000   1.0000   1.0000   1.0000   1.0000
     1.0000   1.0000  -0.0000  -0.0000  -0.0000  -0.0000  -0.0000  -0.0000
    -0.0000  -0.0000  -0.0000  -0.0000  -0.0000  -0.0000

          k = 0.0000 0.2500 0.2035 (  5367 PWs)   bands (ev):

   -79.3821 -79.3821 -79.3813 -79.3813 -46.2255 -46.2255 -46.2186 -46.2186
   -32.7710 -32.7710 -32.7602 -32.7602 -32.6283 -32.6283 -32.6134 -32.6134
    -6.6767  -6.6767  -5.8016  -5.8016  -5.2749  -5.2749  -5.0903  -5.0903
     5.0206   5.0206   5.1368   5.1368   6.2164   6.2164   6.2642   6.2642
     6.9077   6.9077   7.8854   7.8854   8.2691   8.2691   8.5076   8.5076
     8.7429   8.7429   9.7810   9.7810  10.2331  10.2331  11.1697  11.1697
    11.6583  11.6583  12.1737  12.1737  12.2389  12.2389  12.5424  12.5424
    12.9419  12.9419  14.4747  14.4747  15.8443  15.8443  16.8629  16.8629
    17.2222  17.2222  18.7042  18.7042  19.5005  19.5005

     occupation numbers 
     1.0000   1.0000   1.0000   1.0000   1.0000   1.0000   1.0000   1.0000
     1.0000   1.0000   1.0000   1.0000   1.0000   1.0000   1.0000   1.0000
     1.0000   1.0000   1.0000   1.0000   1.0000   1.0000   1.0000   1.0000
     1.0000   1.0000   1.0000   1.0000   1.0000   1.0000   1.0000   1.0000
     1.0000   1.0000   1.0000   1.0000   1.0000   1.0000   1.0000   1.0000
     1.0000   1.0000   1.0000   1.0000   1.0000   1.0000   1.0000   1.0000
     1.0000   1.0000   1.0000   1.0000   1.0000   1.0000   1.0000   1.0000
     1.0000   1.0000  -0.0000  -0.0000  -0.0000  -0.0000  -0.0000  -0.0000
    -0.0000  -0.0000  -0.0000  -0.0000  -0.0000  -0.0000

          k = 0.0000 0.2500 0.4071 (  5378 PWs)   bands (ev):

   -79.3810 -79.3810 -79.3804 -79.3804 -46.2292 -46.2292 -46.2244 -46.2244
   -32.7972 -32.7972 -32.7788 -32.7788 -32.6377 -32.6377 -32.6191 -32.6191
    -6.2668  -6.2668  -5.6117  -5.6117  -5.4161  -5.4161  -5.2681  -5.2681
     5.4671   5.4671   5.5531   5.5531   6.3671   6.3671   6.5805   6.5805
     6.9480   6.9480   7.2664   7.2664   7.6342   7.6342   8.6901   8.6901
     9.0805   9.0805   9.3478   9.3478   9.6210   9.6210  10.8263  10.8263
    11.4429  11.4429  12.2629  12.2629  12.4196  12.4196  12.9804  12.9804
    13.5674  13.5674  14.2412  14.2412  15.8610  15.8610  16.0128  16.0128
    16.9189  16.9189  18.2518  18.2518  20.8030  20.8030

     occupation numbers 
     1.0000   1.0000   1.0000   1.0000   1.0000   1.0000   1.0000   1.0000
     1.0000   1.0000   1.0000   1.0000   1.0000   1.0000   1.0000   1.0000
     1.0000   1.0000   1.0000   1.0000   1.0000   1.0000   1.0000   1.0000
     1.0000   1.0000   1.0000   1.0000   1.0000   1.0000   1.0000   1.0000
     1.0000   1.0000   1.0000   1.0000   1.0000   1.0000   1.0000   1.0000
     1.0000   1.0000   1.0000   1.0000   1.0000   1.0000   1.0000   1.0000
     1.0000   1.0000   1.0000   1.0000   1.0000   1.0000   1.0000   1.0000
     1.0000   1.0000  -0.0000  -0.0000  -0.0000  -0.0000  -0.0000  -0.0000
    -0.0000  -0.0000  -0.0000  -0.0000  -0.0000  -0.0000

          k = 0.0000 0.2500 0.6106 (  5372 PWs)   bands (ev):

   -79.3800 -79.3800 -79.3798 -79.3798 -46.2317 -46.2317 -46.2295 -46.2295
   -32.8201 -32.8201 -32.7985 -32.7985 -32.6385 -32.6385 -32.6232 -32.6232
    -5.8899  -5.8899  -5.7082  -5.7082  -5.4132  -5.4132  -5.2851  -5.2851
     5.6736   5.6736   5.8089   5.8089   6.0027   6.0027   6.3307   6.3307
     7.3710   7.3710   7.6115   7.6115   8.1114   8.1114   8.5405   8.5405
     8.8195   8.8195   9.3850   9.3850   9.6143   9.6143   9.8828   9.8828
    11.8188  11.8188  12.0056  12.0056  12.1738  12.1738  12.7757  12.7757
    14.0226  14.0226  14.3725  14.3725  15.3594  15.3594  15.5110  15.5110
    17.4130  17.4130  17.8617  17.8617  22.2995  22.2995

     occupation numbers 
     1.0000   1.0000   1.0000   1.0000   1.0000   1.0000   1.0000   1.0000
     1.0000   1.0000   1.0000   1.0000   1.0000   1.0000   1.0000   1.0000
     1.0000   1.0000   1.0000   1.0000   1.0000   1.0000   1.0000   1.0000
     1.0000   1.0000   1.0000   1.0000   1.0000   1.0000   1.0000   1.0000
     1.0000   1.0000   1.0000   1.0000   1.0000   1.0000   1.0000   1.0000
     1.0000   1.0000   1.0000   1.0000   1.0000   1.0000   1.0000   1.0000
     1.0000   1.0000   1.0000   1.0000   1.0000   1.0000   1.0000   1.0000
    -0.0007  -0.0007  -0.0000  -0.0000  -0.0000  -0.0000  -0.0000  -0.0000
    -0.0000  -0.0000  -0.0000  -0.0000  -0.0000  -0.0000

          k = 0.0000 0.3750 0.0000 (  5370 PWs)   bands (ev):

   -79.3824 -79.3824 -79.3819 -79.3819 -46.2220 -46.2220 -46.2179 -46.2179
   -32.7584 -32.7584 -32.7543 -32.7543 -32.6197 -32.6197 -32.6141 -32.6141
    -6.5862  -6.5862  -6.0220  -6.0220  -5.3002  -5.3002  -5.1434  -5.1434
     5.3267   5.3267   5.3926   5.3926   6.1826   6.1826   6.2266   6.2266
     7.1108   7.1108   7.6070   7.6070   7.6996   7.6996   8.6151   8.6151
     8.7366   8.7366   9.0799   9.0799  10.6461  10.6461  11.0916  11.0916
    11.9789  11.9789  12.0852  12.0852  12.3119  12.3119  12.4785  12.4785
    13.1128  13.1128  14.1565  14.1565  16.4652  16.4652  17.3194  17.3194
    17.5150  17.5150  18.2496  18.2496  19.8282  19.8282

     occupation numbers 
     1.0000   1.0000   1.0000   1.0000   1.0000   1.0000   1.0000   1.0000
     1.0000   1.0000   1.0000   1.0000   1.0000   1.0000   1.0000   1.0000
     1.0000   1.0000   1.0000   1.0000   1.0000   1.0000   1.0000   1.0000
     1.0000   1.0000   1.0000   1.0000   1.0000   1.0000   1.0000   1.0000
     1.0000   1.0000   1.0000   1.0000   1.0000   1.0000   1.0000   1.0000
     1.0000   1.0000   1.0000   1.0000   1.0000   1.0000   1.0000   1.0000
     1.0000   1.0000   1.0000   1.0000   1.0000   1.0000   1.0000   1.0000
     1.0000   1.0000  -0.0000  -0.0000  -0.0000  -0.0000  -0.0000  -0.0000
    -0.0000  -0.0000  -0.0000  -0.0000  -0.0000  -0.0000

          k = 0.0000 0.3750 0.2035 (  5379 PWs)   bands (ev):

   -79.3819 -79.3819 -79.3815 -79.3815 -46.2239 -46.2239 -46.2202 -46.2202
   -32.7716 -32.7716 -32.7579 -32.7579 -32.6277 -32.6277 -32.6161 -32.6161
    -6.4312  -6.4312  -5.8871  -5.8871  -5.3848  -5.3848  -5.2214  -5.2214
     5.4867   5.4867   5.5936   5.5936   6.2145   6.2145   6.2754   6.2754
     7.2262   7.2262   7.7670   7.7670   7.9026   7.9026   8.0156   8.0156
     8.1213   8.1213   9.1920   9.1920  10.5327  10.5327  10.9837  10.9837
    11.9341  11.9341  12.1603  12.1603  12.5473  12.5473  12.7692  12.7692
    13.2535  13.2535  14.0755  14.0755  16.4153  16.4153  16.6936  16.6936
    17.1156  17.1156  18.2347  18.2347  20.3852  20.3852

     occupation numbers 
     1.0000   1.0000   1.0000   1.0000   1.0000   1.0000   1.0000   1.0000
     1.0000   1.0000   1.0000   1.0000   1.0000   1.0000   1.0000   1.0000
     1.0000   1.0000   1.0000   1.0000   1.0000   1.0000   1.0000   1.0000
     1.0000   1.0000   1.0000   1.0000   1.0000   1.0000   1.0000   1.0000
     1.0000   1.0000   1.0000   1.0000   1.0000   1.0000   1.0000   1.0000
     1.0000   1.0000   1.0000   1.0000   1.0000   1.0000   1.0000   1.0000
     1.0000   1.0000   1.0000   1.0000   1.0000   1.0000   1.0000   1.0000
     1.0000   1.0000  -0.0000  -0.0000  -0.0000  -0.0000  -0.0000  -0.0000
    -0.0000  -0.0000  -0.0000  -0.0000  -0.0000  -0.0000

          k = 0.0000 0.3750 0.4071 (  5370 PWs)   bands (ev):

   -79.3809 -79.3809 -79.3806 -79.3806 -46.2283 -46.2283 -46.2253 -46.2253
   -32.7997 -32.7997 -32.7758 -32.7758 -32.6376 -32.6376 -32.6200 -32.6200
    -6.0828  -6.0828  -5.6449  -5.6449  -5.5241  -5.5241  -5.3454  -5.3454
     5.7700   5.7700   5.8680   5.8680   6.3234   6.3234   6.5782   6.5782
     6.7604   6.7604   6.9503   6.9503   8.0235   8.0235   8.4153   8.4153
     8.6674   8.6674   9.2206   9.2206   9.9579   9.9579  10.7418  10.7418
    11.5151  11.5151  12.2966  12.2966  12.5045  12.5045  12.8334  12.8334
    13.6625  13.6625  14.1496  14.1496  15.6082  15.6082  15.8023  15.8023
    17.4116  17.4116  18.2382  18.2382  21.4528  21.4528

     occupation numbers 
     1.0000   1.0000   1.0000   1.0000   1.0000   1.0000   1.0000   1.0000
     1.0000   1.0000   1.0000   1.0000   1.0000   1.0000   1.0000   1.0000
     1.0000   1.0000   1.0000   1.0000   1.0000   1.0000   1.0000   1.0000
     1.0000   1.0000   1.0000   1.0000   1.0000   1.0000   1.0000   1.0000
     1.0000   1.0000   1.0000   1.0000   1.0000   1.0000   1.0000   1.0000
     1.0000   1.0000   1.0000   1.0000   1.0000   1.0000   1.0000   1.0000
     1.0000   1.0000   1.0000   1.0000   1.0000   1.0000   1.0000   1.0000
     1.0005   1.0005  -0.0000  -0.0000  -0.0000  -0.0000  -0.0000  -0.0000
    -0.0000  -0.0000  -0.0000  -0.0000  -0.0000  -0.0000

          k = 0.0000 0.3750 0.6106 (  5361 PWs)   bands (ev):

   -79.3800 -79.3800 -79.3799 -79.3799 -46.2316 -46.2316 -46.2296 -46.2296
   -32.8234 -32.8234 -32.7953 -32.7953 -32.6402 -32.6402 -32.6216 -32.6216
    -5.8589  -5.8589  -5.7656  -5.7656  -5.4086  -5.4086  -5.2559  -5.2559
     5.5918   5.5918   5.6635   5.6635   6.1040   6.1040   6.2207   6.2207
     7.3843   7.3843   7.8747   7.8747   8.0954   8.0954   8.7246   8.7246
     9.0168   9.0168   9.1234   9.1234   9.7556   9.7556  10.4449  10.4449
    11.3341  11.3341  11.8372  11.8372  12.0103  12.0103  12.4095  12.4095
    14.0805  14.0805  14.4443  14.4443  15.1192  15.1192  15.2443  15.2443
    17.9283  17.9283  18.2456  18.2456  22.5889  22.5889

     occupation numbers 
     1.0000   1.0000   1.0000   1.0000   1.0000   1.0000   1.0000   1.0000
     1.0000   1.0000   1.0000   1.0000   1.0000   1.0000   1.0000   1.0000
     1.0000   1.0000   1.0000   1.0000   1.0000   1.0000   1.0000   1.0000
     1.0000   1.0000   1.0000   1.0000   1.0000   1.0000   1.0000   1.0000
     1.0000   1.0000   1.0000   1.0000   1.0000   1.0000   1.0000   1.0000
     1.0000   1.0000   1.0000   1.0000   1.0000   1.0000   1.0000   1.0000
     1.0000   1.0000   1.0000   1.0000   1.0000   1.0000   1.0000   1.0000
    -0.0000  -0.0000  -0.0000  -0.0000  -0.0000  -0.0000  -0.0000  -0.0000
    -0.0000  -0.0000  -0.0000  -0.0000  -0.0000  -0.0000

          k = 0.0000-0.5000 0.0000 (  5380 PWs)   bands (ev):

   -79.3821 -79.3821 -79.3821 -79.3821 -46.2200 -46.2200 -46.2200 -46.2200
   -32.7559 -32.7559 -32.7559 -32.7559 -32.6175 -32.6175 -32.6175 -32.6175
    -6.2815  -6.2815  -6.2815  -6.2815  -5.2647  -5.2647  -5.2647  -5.2647
     5.6289   5.6289   5.6289   5.6289   6.2394   6.2394   6.2394   6.2394
     7.2628   7.2628   7.2628   7.2628   7.8909   7.8909   7.8909   7.8909
     8.7697   8.7697   8.7697   8.7697  10.8267  10.8267  10.8267  10.8267
    12.1245  12.1245  12.1245  12.1245  12.5042  12.5042  12.5042  12.5042
    13.6375  13.6375  13.6375  13.6375  17.2190  17.2190  17.2190  17.2190
    17.5173  17.5173  17.5173  17.5173  20.7710  20.7710

     occupation numbers 
     1.0000   1.0000   1.0000   1.0000   1.0000   1.0000   1.0000   1.0000
     1.0000   1.0000   1.0000   1.0000   1.0000   1.0000   1.0000   1.0000
     1.0000   1.0000   1.0000   1.0000   1.0000   1.0000   1.0000   1.0000
     1.0000   1.0000   1.0000   1.0000   1.0000   1.0000   1.0000   1.0000
     1.0000   1.0000   1.0000   1.0000   1.0000   1.0000   1.0000   1.0000
     1.0000   1.0000   1.0000   1.0000   1.0000   1.0000   1.0000   1.0000
     1.0000   1.0000   1.0000   1.0000   1.0000   1.0000   1.0000   1.0000
     1.0001   1.0001   1.0001   1.0001  -0.0000  -0.0000  -0.0000  -0.0000
    -0.0000  -0.0000  -0.0000  -0.0000  -0.0000  -0.0000

          k = 0.0000-0.5000 0.2035 (  5368 PWs)   bands (ev):

   -79.3817 -79.3817 -79.3817 -79.3817 -46.2225 -46.2225 -46.2216 -46.2216
   -32.7718 -32.7718 -32.7570 -32.7570 -32.6273 -32.6273 -32.6174 -32.6174
    -6.1552  -6.1552  -6.1235  -6.1235  -5.3567  -5.3567  -5.3221  -5.3221
     5.8011   5.8011   5.9232   5.9232   6.1600   6.1600   6.1753   6.1753
     7.4542   7.4542   7.4996   7.4996   7.6824   7.6824   7.6898   7.6898
     8.4724   8.4724   8.5757   8.5757  10.7803  10.7803  10.7973  10.7973
    12.0685  12.0685  12.1043  12.1043  12.7098  12.7098  12.8671  12.8671
    13.4893  13.4893  13.7742  13.7742  16.4884  16.4884  16.6826  16.6826
    17.5873  17.5873  17.6146  17.6146  21.2750  21.2781

     occupation numbers 
     1.0000   1.0000   1.0000   1.0000   1.0000   1.0000   1.0000   1.0000
     1.0000   1.0000   1.0000   1.0000   1.0000   1.0000   1.0000   1.0000
     1.0000   1.0000   1.0000   1.0000   1.0000   1.0000   1.0000   1.0000
     1.0000   1.0000   1.0000   1.0000   1.0000   1.0000   1.0000   1.0000
     1.0000   1.0000   1.0000   1.0000   1.0000   1.0000   1.0000   1.0000
     1.0000   1.0000   1.0000   1.0000   1.0000   1.0000   1.0000   1.0000
     1.0000   1.0000   1.0000   1.0000   1.0000   1.0000   1.0000   1.0000
     1.0000   1.0000   1.0289   1.0289  -0.0000  -0.0000  -0.0000  -0.0000
    -0.0000  -0.0000  -0.0000  -0.0000  -0.0000  -0.0000

          k = 0.0000-0.5000 0.4071 (  5376 PWs)   bands (ev):

   -79.3807 -79.3807 -79.3807 -79.3807 -46.2276 -46.2276 -46.2260 -46.2260
   -32.8005 -32.8005 -32.7748 -32.7748 -32.6376 -32.6376 -32.6204 -32.6204
    -5.8709  -5.8709  -5.8503  -5.8503  -5.4962  -5.4962  -5.3940  -5.3940
     5.9949   5.9949   6.0321   6.0321   6.3841   6.3841   6.4106   6.4106
     6.6524   6.6524   6.8380   6.8380   8.1926   8.1926   8.2037   8.2037
     8.8456   8.8456   8.8850   8.8850  10.3243  10.3243  10.3599  10.3599
    11.9155  11.9155  11.9768  11.9768  12.5600  12.5600  12.8405  12.8405
    13.6918  13.6918  14.1244  14.1244  15.5572  15.5572  15.6476  15.6476
    17.8624  17.8624  17.9718  17.9718  22.2113  22.2158

     occupation numbers 
     1.0000   1.0000   1.0000   1.0000   1.0000   1.0000   1.0000   1.0000
     1.0000   1.0000   1.0000   1.0000   1.0000   1.0000   1.0000   1.0000
     1.0000   1.0000   1.0000   1.0000   1.0000   1.0000   1.0000   1.0000
     1.0000   1.0000   1.0000   1.0000   1.0000   1.0000   1.0000   1.0000
     1.0000   1.0000   1.0000   1.0000   1.0000   1.0000   1.0000   1.0000
     1.0000   1.0000   1.0000   1.0000   1.0000   1.0000   1.0000   1.0000
     1.0000   1.0000   1.0000   1.0000   1.0000   1.0000   1.0000   1.0000
     1.0032   1.0032  -0.0000  -0.0000  -0.0000  -0.0000  -0.0000  -0.0000
    -0.0000  -0.0000  -0.0000  -0.0000  -0.0000  -0.0000

          k = 0.0000-0.5000 0.6106 (  5370 PWs)   bands (ev):

   -79.3799 -79.3799 -79.3799 -79.3799 -46.2316 -46.2316 -46.2296 -46.2296
   -32.8246 -32.8246 -32.7942 -32.7942 -32.6408 -32.6408 -32.6210 -32.6210
    -5.8182  -5.8182  -5.8163  -5.8163  -5.4053  -5.4053  -5.2460  -5.2460
     5.5480   5.5480   5.5885   5.5885   6.1923   6.1923   6.1964   6.1964
     7.3939   7.3939   7.8180   7.8180   8.4946   8.4946   8.5312   8.5312
     8.8936   8.8936   9.0186   9.0186  10.4301  10.4301  10.4506  10.4506
    11.2696  11.2696  11.2828  11.2828  12.0192  12.0192  12.3380  12.3380
    14.1031  14.1031  14.4651  14.4651  15.0821  15.0821  15.1048  15.1048
    18.1753  18.1753  18.3386  18.3386  22.9898  23.0399

     occupation numbers 
     1.0000   1.0000   1.0000   1.0000   1.0000   1.0000   1.0000   1.0000
     1.0000   1.0000   1.0000   1.0000   1.0000   1.0000   1.0000   1.0000
     1.0000   1.0000   1.0000   1.0000   1.0000   1.0000   1.0000   1.0000
     1.0000   1.0000   1.0000   1.0000   1.0000   1.0000   1.0000   1.0000
     1.0000   1.0000   1.0000   1.0000   1.0000   1.0000   1.0000   1.0000
     1.0000   1.0000   1.0000   1.0000   1.0000   1.0000   1.0000   1.0000
     1.0000   1.0000   1.0000   1.0000   1.0000   1.0000   1.0000   1.0000
    -0.0000  -0.0000  -0.0000  -0.0000  -0.0000  -0.0000  -0.0000  -0.0000
    -0.0000  -0.0000  -0.0000  -0.0000  -0.0000  -0.0000

          k = 0.1250 0.1250 0.0000 (  5367 PWs)   bands (ev):

   -79.3827 -79.3827 -79.3816 -79.3816 -46.2245 -46.2245 -46.2153 -46.2153
   -32.7628 -32.7628 -32.7537 -32.7537 -32.6208 -32.6208 -32.6084 -32.6084
    -6.9632  -6.9632  -5.9083  -5.9083  -5.1226  -5.1226  -4.8855  -4.8855
     4.3803   4.3803   4.9033   4.9033   6.0585   6.0585   6.1804   6.1804
     6.4515   6.4515   8.2576   8.2576   8.6833   8.6833   9.0392   9.0392
     9.9210   9.9210  10.3942  10.3942  10.5457  10.5457  11.1513  11.1513
    11.4917  11.4917  11.5909  11.5909  11.8923  11.8923  12.0310  12.0310
    12.4490  12.4490  14.8585  14.8585  15.0550  15.0550  17.5399  17.5399
    17.9381  17.9381  18.4597  18.4597  19.1594  19.1594

     occupation numbers 
     1.0000   1.0000   1.0000   1.0000   1.0000   1.0000   1.0000   1.0000
     1.0000   1.0000   1.0000   1.0000   1.0000   1.0000   1.0000   1.0000
     1.0000   1.0000   1.0000   1.0000   1.0000   1.0000   1.0000   1.0000
     1.0000   1.0000   1.0000   1.0000   1.0000   1.0000   1.0000   1.0000
     1.0000   1.0000   1.0000   1.0000   1.0000   1.0000   1.0000   1.0000
     1.0000   1.0000   1.0000   1.0000   1.0000   1.0000   1.0000   1.0000
     1.0000   1.0000   1.0000   1.0000   1.0000   1.0000   1.0000   1.0000
     1.0000   1.0000  -0.0000  -0.0000  -0.0000  -0.0000  -0.0000  -0.0000
    -0.0000  -0.0000  -0.0000  -0.0000  -0.0000  -0.0000

          k = 0.1250 0.1250 0.2035 (  5370 PWs)   bands (ev):

   -79.3822 -79.3822 -79.3812 -79.3812 -46.2262 -46.2262 -46.2179 -46.2179
   -32.7704 -32.7704 -32.7621 -32.7621 -32.6284 -32.6284 -32.6119 -32.6119
    -6.7870  -6.7870  -5.8061  -5.8061  -5.2027  -5.2027  -4.9901  -4.9901
     4.6123   4.6123   5.0899   5.0899   6.1426   6.1426   6.3046   6.3046
     6.7070   6.7070   7.9008   7.9008   8.5212   8.5212   8.9226   8.9226
     9.2151   9.2151   9.9646   9.9646  10.2309  10.2309  11.2621  11.2621
    11.4230  11.4230  11.7884  11.7884  12.1962  12.1962  12.5060  12.5060
    12.8244  12.8244  14.6858  14.6858  15.4214  15.4214  16.9521  16.9521
    17.4417  17.4417  18.8023  18.8023  19.1373  19.1373

     occupation numbers 
     1.0000   1.0000   1.0000   1.0000   1.0000   1.0000   1.0000   1.0000
     1.0000   1.0000   1.0000   1.0000   1.0000   1.0000   1.0000   1.0000
     1.0000   1.0000   1.0000   1.0000   1.0000   1.0000   1.0000   1.0000
     1.0000   1.0000   1.0000   1.0000   1.0000   1.0000   1.0000   1.0000
     1.0000   1.0000   1.0000   1.0000   1.0000   1.0000   1.0000   1.0000
     1.0000   1.0000   1.0000   1.0000   1.0000   1.0000   1.0000   1.0000
     1.0000   1.0000   1.0000   1.0000   1.0000   1.0000   1.0000   1.0000
     1.0000   1.0000  -0.0000  -0.0000  -0.0000  -0.0000  -0.0000  -0.0000
    -0.0000  -0.0000  -0.0000  -0.0000  -0.0000  -0.0000

          k = 0.1250 0.1250 0.4071 (  5377 PWs)   bands (ev):

   -79.3811 -79.3811 -79.3804 -79.3804 -46.2296 -46.2296 -46.2239 -46.2239
   -32.7948 -32.7948 -32.7815 -32.7815 -32.6376 -32.6376 -32.6187 -32.6187
    -6.3490  -6.3490  -5.6318  -5.6318  -5.3466  -5.3466  -5.2108  -5.2108
     5.1942   5.1942   5.5174   5.5174   6.3894   6.3894   6.5795   6.5795
     6.9752   6.9752   7.3528   7.3528   7.6461   7.6461   8.8479   8.8479
     9.0089   9.0089   9.5458   9.5458   9.6771   9.6771  10.6104  10.6104
    11.6717  11.6717  12.0175  12.0175  12.3873  12.3873  13.1732  13.1732
    13.4738  13.4738  14.3160  14.3160  15.8668  15.8668  16.2648  16.2648
    16.7362  16.7362  18.0870  18.0870  20.5391  20.5391

     occupation numbers 
     1.0000   1.0000   1.0000   1.0000   1.0000   1.0000   1.0000   1.0000
     1.0000   1.0000   1.0000   1.0000   1.0000   1.0000   1.0000   1.0000
     1.0000   1.0000   1.0000   1.0000   1.0000   1.0000   1.0000   1.0000
     1.0000   1.0000   1.0000   1.0000   1.0000   1.0000   1.0000   1.0000
     1.0000   1.0000   1.0000   1.0000   1.0000   1.0000   1.0000   1.0000
     1.0000   1.0000   1.0000   1.0000   1.0000   1.0000   1.0000   1.0000
     1.0000   1.0000   1.0000   1.0000   1.0000   1.0000   1.0000   1.0000
     1.0000   1.0000  -0.0000  -0.0000  -0.0000  -0.0000  -0.0000  -0.0000
    -0.0000  -0.0000  -0.0000  -0.0000  -0.0000  -0.0000

          k = 0.1250 0.1250 0.6106 (  5358 PWs)   bands (ev):

   -79.3801 -79.3801 -79.3798 -79.3798 -46.2317 -46.2317 -46.2295 -46.2295
   -32.8169 -32.8169 -32.8015 -32.8015 -32.6370 -32.6370 -32.6247 -32.6247
    -5.9028  -5.9028  -5.6669  -5.6669  -5.4220  -5.4220  -5.3089  -5.3089
     5.6431   5.6431   5.8694   5.8694   6.0667   6.0667   6.7136   6.7136
     6.8259   6.8259   7.6853   7.6853   8.2008   8.2008   8.3613   8.3613
     8.5540   8.5540   9.3934   9.3934   9.5555   9.5555   9.9596   9.9596
    11.8487  11.8487  12.0348  12.0348  12.3943  12.3943  13.2182  13.2182
    13.7714  13.7714  14.3857  14.3857  15.3934  15.3934  16.1513  16.1513
    16.7218  16.7218  17.6035  17.6035  22.1877  22.1877

     occupation numbers 
     1.0000   1.0000   1.0000   1.0000   1.0000   1.0000   1.0000   1.0000
     1.0000   1.0000   1.0000   1.0000   1.0000   1.0000   1.0000   1.0000
     1.0000   1.0000   1.0000   1.0000   1.0000   1.0000   1.0000   1.0000
     1.0000   1.0000   1.0000   1.0000   1.0000   1.0000   1.0000   1.0000
     1.0000   1.0000   1.0000   1.0000   1.0000   1.0000   1.0000   1.0000
     1.0000   1.0000   1.0000   1.0000   1.0000   1.0000   1.0000   1.0000
     1.0000   1.0000   1.0000   1.0000   1.0000   1.0000   1.0000   1.0000
     1.0317   1.0317  -0.0000  -0.0000  -0.0000  -0.0000  -0.0000  -0.0000
    -0.0000  -0.0000  -0.0000  -0.0000  -0.0000  -0.0000

          k = 0.1250 0.2500 0.0000 (  5366 PWs)   bands (ev):

   -79.3826 -79.3826 -79.3817 -79.3817 -46.2235 -46.2235 -46.2164 -46.2164
   -32.7610 -32.7610 -32.7538 -32.7538 -32.6205 -32.6205 -32.6108 -32.6108
    -6.8102  -6.8102  -5.9277  -5.9277  -5.2522  -5.2522  -4.9671  -4.9671
     4.5244   4.5244   5.3765   5.3765   6.0800   6.0800   6.2229   6.2229
     6.7367   6.7367   7.6213   7.6213   8.5942   8.5942   8.7833   8.7833
     9.5998   9.5998   9.8114   9.8114  10.3500  10.3500  11.2733  11.2733
    11.4277  11.4277  11.7811  11.7811  12.1110  12.1110  12.3720  12.3720
    12.7991  12.7991  14.5808  14.5808  15.5543  15.5543  17.3823  17.3823
    17.8198  17.8198  18.7322  18.7322  19.1882  19.1882

     occupation numbers 
     1.0000   1.0000   1.0000   1.0000   1.0000   1.0000   1.0000   1.0000
     1.0000   1.0000   1.0000   1.0000   1.0000   1.0000   1.0000   1.0000
     1.0000   1.0000   1.0000   1.0000   1.0000   1.0000   1.0000   1.0000
     1.0000   1.0000   1.0000   1.0000   1.0000   1.0000   1.0000   1.0000
     1.0000   1.0000   1.0000   1.0000   1.0000   1.0000   1.0000   1.0000
     1.0000   1.0000   1.0000   1.0000   1.0000   1.0000   1.0000   1.0000
     1.0000   1.0000   1.0000   1.0000   1.0000   1.0000   1.0000   1.0000
     1.0000   1.0000  -0.0000  -0.0000  -0.0000  -0.0000  -0.0000  -0.0000
    -0.0000  -0.0000  -0.0000  -0.0000  -0.0000  -0.0000

          k = 0.1250 0.2500 0.2035 (  5375 PWs)   bands (ev):

   -79.3821 -79.3821 -79.3813 -79.3813 -46.2252 -46.2252 -46.2189 -46.2189
   -32.7710 -32.7710 -32.7601 -32.7601 -32.6280 -32.6280 -32.6139 -32.6139
    -6.6428  -6.6428  -5.8079  -5.8079  -5.3345  -5.3345  -5.0629  -5.0629
     4.7386   4.7386   5.5478   5.5478   6.1340   6.1340   6.3005   6.3005
     6.9998   6.9998   7.7328   7.7328   7.9791   7.9791   8.5543   8.5543
     9.0910   9.0910   9.7808   9.7808  10.2307  10.2307  11.0103  11.0103
    11.6387  11.6387  11.9291  11.9291  12.3117  12.3117  12.6827  12.6827
    13.0627  13.0627  14.4289  14.4289  15.8456  15.8456  16.7286  16.7286
    17.3386  17.3386  18.5919  18.5919  19.7410  19.7410

     occupation numbers 
     1.0000   1.0000   1.0000   1.0000   1.0000   1.0000   1.0000   1.0000
     1.0000   1.0000   1.0000   1.0000   1.0000   1.0000   1.0000   1.0000
     1.0000   1.0000   1.0000   1.0000   1.0000   1.0000   1.0000   1.0000
     1.0000   1.0000   1.0000   1.0000   1.0000   1.0000   1.0000   1.0000
     1.0000   1.0000   1.0000   1.0000   1.0000   1.0000   1.0000   1.0000
     1.0000   1.0000   1.0000   1.0000   1.0000   1.0000   1.0000   1.0000
     1.0000   1.0000   1.0000   1.0000   1.0000   1.0000   1.0000   1.0000
     1.0000   1.0000  -0.0000  -0.0000  -0.0000  -0.0000  -0.0000  -0.0000
    -0.0000  -0.0000  -0.0000  -0.0000  -0.0000  -0.0000

          k = 0.1250 0.2500 0.4071 (  5373 PWs)   bands (ev):

   -79.3810 -79.3810 -79.3804 -79.3804 -46.2290 -46.2290 -46.2245 -46.2245
   -32.7972 -32.7972 -32.7788 -32.7788 -32.6374 -32.6374 -32.6196 -32.6196
    -6.2389  -6.2389  -5.6032  -5.6032  -5.4637  -5.4637  -5.2574  -5.2574
     5.2710   5.2710   5.8287   5.8287   6.3025   6.3025   6.5126   6.5126
     6.8757   6.8757   7.4240   7.4240   7.7011   7.7011   8.4776   8.4776
     9.0623   9.0623   9.4171   9.4171   9.7561   9.7561  10.8969  10.8969
    11.3759  11.3759  12.1203  12.1203  12.5129  12.5129  13.0029  13.0029
    13.5379  13.5379  14.2217  14.2217  15.6641  15.6641  16.2452  16.2452
    16.8787  16.8787  18.2316  18.2316  20.9398  20.9398

     occupation numbers 
     1.0000   1.0000   1.0000   1.0000   1.0000   1.0000   1.0000   1.0000
     1.0000   1.0000   1.0000   1.0000   1.0000   1.0000   1.0000   1.0000
     1.0000   1.0000   1.0000   1.0000   1.0000   1.0000   1.0000   1.0000
     1.0000   1.0000   1.0000   1.0000   1.0000   1.0000   1.0000   1.0000
     1.0000   1.0000   1.0000   1.0000   1.0000   1.0000   1.0000   1.0000
     1.0000   1.0000   1.0000   1.0000   1.0000   1.0000   1.0000   1.0000
     1.0000   1.0000   1.0000   1.0000   1.0000   1.0000   1.0000   1.0000
     1.0000   1.0000  -0.0000  -0.0000  -0.0000  -0.0000  -0.0000  -0.0000
    -0.0000  -0.0000  -0.0000  -0.0000  -0.0000  -0.0000

          k = 0.1250 0.2500 0.6106 (  5366 PWs)   bands (ev):

   -79.3800 -79.3800 -79.3798 -79.3798 -46.2316 -46.2316 -46.2296 -46.2296
   -32.8201 -32.8201 -32.7985 -32.7985 -32.6385 -32.6385 -32.6234 -32.6234
    -5.8815  -5.8815  -5.6974  -5.6974  -5.4322  -5.4322  -5.2820  -5.2820
     5.6415   5.6415   5.8097   5.8097   6.0440   6.0440   6.3618   6.3618
     6.9608   6.9608   7.8368   7.8368   8.2226   8.2226   8.6074   8.6074
     8.8706   8.8706   9.2065   9.2065   9.6469   9.6469  10.0901  10.0901
    11.7533  11.7533  11.9817  11.9817  12.1690  12.1690  12.8765  12.8765
    13.7798  13.7798  14.4601  14.4601  15.1290  15.1290  15.8641  15.8641
    17.1721  17.1721  18.0113  18.0113  22.3383  22.3383

     occupation numbers 
     1.0000   1.0000   1.0000   1.0000   1.0000   1.0000   1.0000   1.0000
     1.0000   1.0000   1.0000   1.0000   1.0000   1.0000   1.0000   1.0000
     1.0000   1.0000   1.0000   1.0000   1.0000   1.0000   1.0000   1.0000
     1.0000   1.0000   1.0000   1.0000   1.0000   1.0000   1.0000   1.0000
     1.0000   1.0000   1.0000   1.0000   1.0000   1.0000   1.0000   1.0000
     1.0000   1.0000   1.0000   1.0000   1.0000   1.0000   1.0000   1.0000
     1.0000   1.0000   1.0000   1.0000   1.0000   1.0000   1.0000   1.0000
     1.0203   1.0203  -0.0000  -0.0000  -0.0000  -0.0000  -0.0000  -0.0000
    -0.0000  -0.0000  -0.0000  -0.0000  -0.0000  -0.0000

          k = 0.1250 0.3750 0.0000 (  5384 PWs)   bands (ev):

   -79.3824 -79.3824 -79.3819 -79.3819 -46.2219 -46.2219 -46.2181 -46.2181
   -32.7586 -32.7586 -32.7546 -32.7546 -32.6193 -32.6193 -32.6140 -32.6140
    -6.5777  -6.5777  -6.0567  -6.0567  -5.3035  -5.3035  -5.0959  -5.0959
     4.8815   4.8815   5.6411   5.6411   6.1283   6.1283   6.2433   6.2433
     7.1470   7.1470   7.3498   7.3498   8.2186   8.2186   8.6490   8.6490
     8.9603   8.9603   9.2112   9.2112  10.4196  10.4196  10.9784  10.9784
    11.8013  11.8013  12.0453  12.0453  12.2147  12.2147  12.5217  12.5217
    13.2274  13.2274  14.1793  14.1793  16.3146  16.3146  17.3225  17.3225
    17.5950  17.5950  18.0973  18.0973  20.0885  20.0885

     occupation numbers 
     1.0000   1.0000   1.0000   1.0000   1.0000   1.0000   1.0000   1.0000
     1.0000   1.0000   1.0000   1.0000   1.0000   1.0000   1.0000   1.0000
     1.0000   1.0000   1.0000   1.0000   1.0000   1.0000   1.0000   1.0000
     1.0000   1.0000   1.0000   1.0000   1.0000   1.0000   1.0000   1.0000
     1.0000   1.0000   1.0000   1.0000   1.0000   1.0000   1.0000   1.0000
     1.0000   1.0000   1.0000   1.0000   1.0000   1.0000   1.0000   1.0000
     1.0000   1.0000   1.0000   1.0000   1.0000   1.0000   1.0000   1.0000
     1.0000   1.0000  -0.0000  -0.0000  -0.0000  -0.0000  -0.0000  -0.0000
    -0.0000  -0.0000  -0.0000  -0.0000  -0.0000  -0.0000

          k = 0.1250 0.3750 0.2035 (  5378 PWs)   bands (ev):

   -79.3819 -79.3819 -79.3815 -79.3815 -46.2238 -46.2238 -46.2203 -46.2203
   -32.7714 -32.7714 -32.7585 -32.7585 -32.6272 -32.6272 -32.6163 -32.6163
    -6.4232  -6.4232  -5.9222  -5.9222  -5.3846  -5.3846  -5.1793  -5.1793
     5.0723   5.0723   5.8723   5.8723   6.1477   6.1477   6.1957   6.1957
     7.3273   7.3273   7.6328   7.6328   7.8557   7.8557   8.2153   8.2153
     8.6053   8.6053   9.2525   9.2525  10.3686  10.3686  10.8221  10.8221
    11.9005  11.9005  12.0955  12.0955  12.4587  12.4587  12.8152  12.8152
    13.3041  13.3041  14.0703  14.0703  16.3702  16.3702  16.6918  16.6918
    17.1875  17.1875  18.1084  18.1084  20.5860  20.5860

     occupation numbers 
     1.0000   1.0000   1.0000   1.0000   1.0000   1.0000   1.0000   1.0000
     1.0000   1.0000   1.0000   1.0000   1.0000   1.0000   1.0000   1.0000
     1.0000   1.0000   1.0000   1.0000   1.0000   1.0000   1.0000   1.0000
     1.0000   1.0000   1.0000   1.0000   1.0000   1.0000   1.0000   1.0000
     1.0000   1.0000   1.0000   1.0000   1.0000   1.0000   1.0000   1.0000
     1.0000   1.0000   1.0000   1.0000   1.0000   1.0000   1.0000   1.0000
     1.0000   1.0000   1.0000   1.0000   1.0000   1.0000   1.0000   1.0000
     1.0000   1.0000  -0.0000  -0.0000  -0.0000  -0.0000  -0.0000  -0.0000
    -0.0000  -0.0000  -0.0000  -0.0000  -0.0000  -0.0000

          k = 0.1250 0.3750 0.4071 (  5373 PWs)   bands (ev):

   -79.3809 -79.3809 -79.3806 -79.3806 -46.2282 -46.2282 -46.2254 -46.2254
   -32.7990 -32.7990 -32.7767 -32.7767 -32.6370 -32.6370 -32.6205 -32.6205
    -6.0725  -6.0725  -5.6773  -5.6773  -5.5104  -5.5104  -5.3280  -5.3280
     5.4935   5.4935   6.0158   6.0158   6.3039   6.3039   6.4541   6.4541
     6.6935   6.6935   7.1909   7.1909   8.0596   8.0596   8.4209   8.4209
     8.9087   8.9087   9.1705   9.1705   9.9405   9.9405  10.6853  10.6853
    11.5754  11.5754  12.2432  12.2432  12.4971  12.4971  12.8400  12.8400
    13.6177  13.6177  14.1030  14.1030  15.5715  15.5715  16.0081  16.0081
    17.3234  17.3234  18.1512  18.1512  21.5581  21.5581

     occupation numbers 
     1.0000   1.0000   1.0000   1.0000   1.0000   1.0000   1.0000   1.0000
     1.0000   1.0000   1.0000   1.0000   1.0000   1.0000   1.0000   1.0000
     1.0000   1.0000   1.0000   1.0000   1.0000   1.0000   1.0000   1.0000
     1.0000   1.0000   1.0000   1.0000   1.0000   1.0000   1.0000   1.0000
     1.0000   1.0000   1.0000   1.0000   1.0000   1.0000   1.0000   1.0000
     1.0000   1.0000   1.0000   1.0000   1.0000   1.0000   1.0000   1.0000
     1.0000   1.0000   1.0000   1.0000   1.0000   1.0000   1.0000   1.0000
     1.0000   1.0000  -0.0000  -0.0000  -0.0000  -0.0000  -0.0000  -0.0000
    -0.0000  -0.0000  -0.0000  -0.0000  -0.0000  -0.0000

          k = 0.1250 0.3750 0.6106 (  5359 PWs)   bands (ev):

   -79.3800 -79.3800 -79.3799 -79.3799 -46.2315 -46.2315 -46.2297 -46.2297
   -32.8226 -32.8226 -32.7962 -32.7962 -32.6396 -32.6396 -32.6222 -32.6222
    -5.8468  -5.8468  -5.7465  -5.7465  -5.4244  -5.4244  -5.2677  -5.2677
     5.5738   5.5738   5.7138   5.7138   6.0888   6.0888   6.2160   6.2160
     7.1695   7.1695   7.7844   7.7844   8.2449   8.2449   8.6920   8.6920
     8.8851   8.8851   9.3474   9.3474   9.8104   9.8104  10.5600  10.5600
    11.3156  11.3156  11.9190  11.9190  12.0285  12.0285  12.4482  12.4482
    13.9363  13.9363  14.4247  14.4247  15.0607  15.0607  15.4790  15.4790
    17.7290  17.7290  18.2307  18.2307  22.6122  22.6122

     occupation numbers 
     1.0000   1.0000   1.0000   1.0000   1.0000   1.0000   1.0000   1.0000
     1.0000   1.0000   1.0000   1.0000   1.0000   1.0000   1.0000   1.0000
     1.0000   1.0000   1.0000   1.0000   1.0000   1.0000   1.0000   1.0000
     1.0000   1.0000   1.0000   1.0000   1.0000   1.0000   1.0000   1.0000
     1.0000   1.0000   1.0000   1.0000   1.0000   1.0000   1.0000   1.0000
     1.0000   1.0000   1.0000   1.0000   1.0000   1.0000   1.0000   1.0000
     1.0000   1.0000   1.0000   1.0000   1.0000   1.0000   1.0000   1.0000
    -0.0337  -0.0337  -0.0000  -0.0000  -0.0000  -0.0000  -0.0000  -0.0000
    -0.0000  -0.0000  -0.0000  -0.0000  -0.0000  -0.0000

          k = 0.1250-0.5000 0.0000 (  5384 PWs)   bands (ev):

   -79.3821 -79.3821 -79.3821 -79.3821 -46.2200 -46.2200 -46.2200 -46.2200
   -32.7563 -32.7563 -32.7563 -32.7563 -32.6171 -32.6171 -32.6171 -32.6171
    -6.3039  -6.3039  -6.3039  -6.3039  -5.2287  -5.2287  -5.2287  -5.2287
     5.3519   5.3519   5.3519   5.3519   6.1904   6.1904   6.1904   6.1904
     7.5156   7.5156   7.5156   7.5156   8.1044   8.1044   8.1044   8.1044
     8.8741   8.8741   8.8741   8.8741  10.6616  10.6616  10.6616  10.6616
    12.0508  12.0508  12.0508  12.0508  12.4047  12.4047  12.4047  12.4047
    13.7105  13.7105  13.7105  13.7105  17.1092  17.1092  17.1092  17.1092
    17.5256  17.5256  17.5256  17.5256  20.9697  20.9697

     occupation numbers 
     1.0000   1.0000   1.0000   1.0000   1.0000   1.0000   1.0000   1.0000
     1.0000   1.0000   1.0000   1.0000   1.0000   1.0000   1.0000   1.0000
     1.0000   1.0000   1.0000   1.0000   1.0000   1.0000   1.0000   1.0000
     1.0000   1.0000   1.0000   1.0000   1.0000   1.0000   1.0000   1.0000
     1.0000   1.0000   1.0000   1.0000   1.0000   1.0000   1.0000   1.0000
     1.0000   1.0000   1.0000   1.0000   1.0000   1.0000   1.0000   1.0000
     1.0000   1.0000   1.0000   1.0000   1.0000   1.0000   1.0000   1.0000
     1.0086   1.0086   1.0086   1.0086  -0.0000  -0.0000  -0.0000  -0.0000
    -0.0000  -0.0000  -0.0000  -0.0000  -0.0000  -0.0000

          k = 0.1250-0.5000 0.2035 (  5378 PWs)   bands (ev):

   -79.3817 -79.3817 -79.3817 -79.3817 -46.2225 -46.2225 -46.2217 -46.2217
   -32.7715 -32.7715 -32.7579 -32.7579 -32.6267 -32.6267 -32.6175 -32.6175
    -6.1763  -6.1763  -6.1475  -6.1475  -5.3217  -5.3217  -5.2888  -5.2888
     5.4983   5.4983   5.5795   5.5795   6.1960   6.1960   6.2025   6.2025
     7.5927   7.5927   7.6283   7.6283   7.9800   7.9800   7.9832   7.9832
     8.5518   8.5518   8.6503   8.6503  10.6043  10.6043  10.6227  10.6227
    12.0412  12.0412  12.0840  12.0840  12.6581  12.6581  12.7595  12.7595
    13.5490  13.5490  13.7724  13.7724  16.5438  16.5438  16.7593  16.7593
    17.4639  17.4639  17.5360  17.5360  21.4136  21.4140

     occupation numbers 
     1.0000   1.0000   1.0000   1.0000   1.0000   1.0000   1.0000   1.0000
     1.0000   1.0000   1.0000   1.0000   1.0000   1.0000   1.0000   1.0000
     1.0000   1.0000   1.0000   1.0000   1.0000   1.0000   1.0000   1.0000
     1.0000   1.0000   1.0000   1.0000   1.0000   1.0000   1.0000   1.0000
     1.0000   1.0000   1.0000   1.0000   1.0000   1.0000   1.0000   1.0000
     1.0000   1.0000   1.0000   1.0000   1.0000   1.0000   1.0000   1.0000
     1.0000   1.0000   1.0000   1.0000   1.0000   1.0000   1.0000   1.0000
     1.0000   1.0000   1.0308   1.0308  -0.0000  -0.0000  -0.0000  -0.0000
    -0.0000  -0.0000  -0.0000  -0.0000  -0.0000  -0.0000

          k = 0.1250-0.5000 0.4071 (  5388 PWs)   bands (ev):

   -79.3807 -79.3807 -79.3807 -79.3807 -46.2275 -46.2275 -46.2261 -46.2261
[...]
     1.0000   1.0000   1.0000   1.0000   1.0000   1.0000   1.0000   1.0000
    -0.0021  -0.0021  -0.0021  -0.0021  -0.0000  -0.0000  -0.0000  -0.0000
    -0.0000  -0.0000  -0.0000  -0.0000  -0.0000  -0.0000

          k = 0.3750-0.5000 0.2035 (  5394 PWs)   bands (ev):

   -79.3817 -79.3817 -79.3817 -79.3817 -46.2223 -46.2223 -46.2219 -46.2219
   -32.7690 -32.7690 -32.7635 -32.7635 -32.6227 -32.6227 -32.6190 -32.6190
    -6.2581  -6.2581  -6.2471  -6.2471  -5.1651  -5.1651  -5.1499  -5.1499
     4.7199   4.7199   4.7482   4.7482   6.0472   6.0472   6.0488   6.0488
     8.3770   8.3770   8.3868   8.3868   8.7450   8.7450   8.7491   8.7491
     9.3338   9.3338   9.3832   9.3832   9.6894   9.6894   9.7696   9.7696
    11.7423  11.7423  11.7942  11.7942  12.2450  12.2450  12.3060  12.3060
    13.7872  13.7872  13.8406  13.8406  16.5161  16.5161  16.6254  16.6254
    17.3943  17.3943  17.4612  17.4612  22.2377  22.2377

     occupation numbers 
     1.0000   1.0000   1.0000   1.0000   1.0000   1.0000   1.0000   1.0000
     1.0000   1.0000   1.0000   1.0000   1.0000   1.0000   1.0000   1.0000
     1.0000   1.0000   1.0000   1.0000   1.0000   1.0000   1.0000   1.0000
     1.0000   1.0000   1.0000   1.0000   1.0000   1.0000   1.0000   1.0000
     1.0000   1.0000   1.0000   1.0000   1.0000   1.0000   1.0000   1.0000
     1.0000   1.0000   1.0000   1.0000   1.0000   1.0000   1.0000   1.0000
     1.0000   1.0000   1.0000   1.0000   1.0000   1.0000   1.0000   1.0000
     1.0017   1.0017   0.5555   0.5555  -0.0000  -0.0000  -0.0000  -0.0000
    -0.0000  -0.0000  -0.0000  -0.0000  -0.0000  -0.0000

          k = 0.3750-0.5000 0.4071 (  5356 PWs)   bands (ev):

   -79.3807 -79.3807 -79.3807 -79.3807 -46.2271 -46.2271 -46.2265 -46.2265
   -32.7933 -32.7933 -32.7835 -32.7835 -32.6318 -32.6318 -32.6253 -32.6253
    -5.9290  -5.9290  -5.9197  -5.9197  -5.3626  -5.3626  -5.3241  -5.3241
     5.2211   5.2211   5.2555   5.2555   6.1169   6.1169   6.1563   6.1563
     7.4205   7.4205   7.4445   7.4445   8.7489   8.7489   8.7629   8.7629
     9.1993   9.1993   9.2556   9.2556  10.0095  10.0095  10.0295  10.0295
    12.0366  12.0366  12.0462  12.0462  12.5802  12.5802  12.7547  12.7547
    13.3907  13.3907  13.6027  13.6027  16.2903  16.2903  16.3699  16.3699
    17.2225  17.2225  17.2380  17.2380  22.6734  22.6754

     occupation numbers 
     1.0000   1.0000   1.0000   1.0000   1.0000   1.0000   1.0000   1.0000
     1.0000   1.0000   1.0000   1.0000   1.0000   1.0000   1.0000   1.0000
     1.0000   1.0000   1.0000   1.0000   1.0000   1.0000   1.0000   1.0000
     1.0000   1.0000   1.0000   1.0000   1.0000   1.0000   1.0000   1.0000
     1.0000   1.0000   1.0000   1.0000   1.0000   1.0000   1.0000   1.0000
     1.0000   1.0000   1.0000   1.0000   1.0000   1.0000   1.0000   1.0000
     1.0000   1.0000   1.0000   1.0000   1.0000   1.0000   1.0000   1.0000
     1.0000   1.0000   1.0000   1.0000  -0.0000  -0.0000  -0.0000  -0.0000
    -0.0000  -0.0000  -0.0000  -0.0000  -0.0000  -0.0000

          k = 0.3750-0.5000 0.6106 (  5358 PWs)   bands (ev):

   -79.3799 -79.3799 -79.3799 -79.3799 -46.2310 -46.2310 -46.2303 -46.2303
   -32.8152 -32.8152 -32.8036 -32.8036 -32.6351 -32.6351 -32.6275 -32.6275
    -5.7097  -5.7097  -5.6760  -5.6760  -5.4870  -5.4870  -5.3925  -5.3925
     5.6454   5.6454   5.6878   5.6878   6.0598   6.0598   6.2494   6.2494
     6.8688   6.8688   6.9681   6.9681   8.2867   8.2867   8.3750   8.3750
     9.5471   9.5471   9.5498   9.5498  10.5393  10.5393  10.5494  10.5494
    11.9199  11.9199  11.9524  11.9524  12.3156  12.3156  12.6025  12.6025
    13.4831  13.4831  13.7581  13.7581  15.8595  15.8595  15.8689  15.8689
    17.2977  17.2977  17.3522  17.3522  23.0728  23.0817

     occupation numbers 
     1.0000   1.0000   1.0000   1.0000   1.0000   1.0000   1.0000   1.0000
     1.0000   1.0000   1.0000   1.0000   1.0000   1.0000   1.0000   1.0000
     1.0000   1.0000   1.0000   1.0000   1.0000   1.0000   1.0000   1.0000
     1.0000   1.0000   1.0000   1.0000   1.0000   1.0000   1.0000   1.0000
     1.0000   1.0000   1.0000   1.0000   1.0000   1.0000   1.0000   1.0000
     1.0000   1.0000   1.0000   1.0000   1.0000   1.0000   1.0000   1.0000
     1.0000   1.0000   1.0000   1.0000   1.0000   1.0000   1.0000   1.0000
     1.0000   1.0000   1.0350   1.0350  -0.0000  -0.0000  -0.0000  -0.0000
    -0.0000  -0.0000  -0.0000  -0.0000  -0.0000  -0.0000

          k =-0.5000-0.5000 0.0000 (  5412 PWs)   bands (ev):

   -79.3821 -79.3821 -79.3821 -79.3821 -46.2200 -46.2200 -46.2200 -46.2200
   -32.7586 -32.7586 -32.7586 -32.7586 -32.6151 -32.6151 -32.6151 -32.6151
    -6.4131  -6.4131  -6.4131  -6.4131  -5.0373  -5.0373  -5.0373  -5.0373
     4.3994   4.3994   4.3994   4.3994   6.0114   6.0114   6.0114   6.0114
     8.7362   8.7362   8.7362   8.7362   8.7772   8.7772   8.7772   8.7772
     9.5936   9.5936   9.5936   9.5936  10.3590  10.3590  10.3590  10.3590
    11.1221  11.1221  11.1221  11.1221  11.7475  11.7475  11.7475  11.7475
    14.0530  14.0530  14.0530  14.0530  16.2369  16.2369  16.2369  16.2369
    17.9269  17.9269  17.9269  17.9269  22.3946  22.8032

     occupation numbers 
     1.0000   1.0000   1.0000   1.0000   1.0000   1.0000   1.0000   1.0000
     1.0000   1.0000   1.0000   1.0000   1.0000   1.0000   1.0000   1.0000
     1.0000   1.0000   1.0000   1.0000   1.0000   1.0000   1.0000   1.0000
     1.0000   1.0000   1.0000   1.0000   1.0000   1.0000   1.0000   1.0000
     1.0000   1.0000   1.0000   1.0000   1.0000   1.0000   1.0000   1.0000
     1.0000   1.0000   1.0000   1.0000   1.0000   1.0000   1.0000   1.0000
     1.0000   1.0000   1.0000   1.0000   1.0000   1.0000   1.0000   1.0000
    -0.0001  -0.0001  -0.0001  -0.0001  -0.0000  -0.0000  -0.0000  -0.0000
    -0.0000  -0.0000  -0.0000  -0.0000  -0.0000  -0.0000

          k =-0.5000-0.5000 0.2035 (  5404 PWs)   bands (ev):

   -79.3817 -79.3817 -79.3817 -79.3817 -46.2221 -46.2221 -46.2221 -46.2221
   -32.7666 -32.7666 -32.7666 -32.7666 -32.6205 -32.6205 -32.6205 -32.6205
    -6.2687  -6.2687  -6.2687  -6.2687  -5.1293  -5.1293  -5.1293  -5.1293
     4.6136   4.6136   4.6136   4.6136   6.0166   6.0166   6.0166   6.0166
     8.6998   8.6998   8.6998   8.6998   8.9256   8.9256   8.9256   8.9256
     9.0882   9.0882   9.0882   9.0882   9.8361   9.8361   9.8361   9.8361
    11.6109  11.6109  11.6109  11.6109  12.2092  12.2092  12.2092  12.2092
    13.8382  13.8382  13.8382  13.8382  16.4867  16.4867  16.4867  16.4867
    17.4843  17.4843  17.4843  17.4843  22.7062  22.7062

     occupation numbers 
     1.0000   1.0000   1.0000   1.0000   1.0000   1.0000   1.0000   1.0000
     1.0000   1.0000   1.0000   1.0000   1.0000   1.0000   1.0000   1.0000
     1.0000   1.0000   1.0000   1.0000   1.0000   1.0000   1.0000   1.0000
     1.0000   1.0000   1.0000   1.0000   1.0000   1.0000   1.0000   1.0000
     1.0000   1.0000   1.0000   1.0000   1.0000   1.0000   1.0000   1.0000
     1.0000   1.0000   1.0000   1.0000   1.0000   1.0000   1.0000   1.0000
     1.0000   1.0000   1.0000   1.0000   1.0000   1.0000   1.0000   1.0000
     0.5847   0.5847   0.5847   0.5847  -0.0000  -0.0000  -0.0000  -0.0000
    -0.0000  -0.0000  -0.0000  -0.0000  -0.0000  -0.0000

          k =-0.5000-0.5000 0.4071 (  5368 PWs)   bands (ev):

   -79.3807 -79.3807 -79.3807 -79.3807 -46.2268 -46.2268 -46.2268 -46.2268
   -32.7886 -32.7886 -32.7886 -32.7886 -32.6285 -32.6285 -32.6285 -32.6285
    -5.9333  -5.9333  -5.9333  -5.9333  -5.3278  -5.3278  -5.3278  -5.3278
     5.1501   5.1501   5.1501   5.1501   6.0957   6.0957   6.0957   6.0957
     7.5508   7.5508   7.5508   7.5508   8.7757   8.7757   8.7757   8.7757
     9.2605   9.2605   9.2605   9.2605  10.0513  10.0513  10.0513  10.0513
    11.9521  11.9521  11.9521  11.9521  12.8085  12.8085  12.8085  12.8085
    13.3657  13.3657  13.3657  13.3657  16.5109  16.5109  16.5109  16.5109
    17.0507  17.0507  17.0507  17.0507  23.0015  23.0015

     occupation numbers 
     1.0000   1.0000   1.0000   1.0000   1.0000   1.0000   1.0000   1.0000
     1.0000   1.0000   1.0000   1.0000   1.0000   1.0000   1.0000   1.0000
     1.0000   1.0000   1.0000   1.0000   1.0000   1.0000   1.0000   1.0000
     1.0000   1.0000   1.0000   1.0000   1.0000   1.0000   1.0000   1.0000
     1.0000   1.0000   1.0000   1.0000   1.0000   1.0000   1.0000   1.0000
     1.0000   1.0000   1.0000   1.0000   1.0000   1.0000   1.0000   1.0000
     1.0000   1.0000   1.0000   1.0000   1.0000   1.0000   1.0000   1.0000
     1.0000   1.0000   1.0000   1.0000  -0.0000  -0.0000  -0.0000  -0.0000
    -0.0000  -0.0000  -0.0000  -0.0000  -0.0000  -0.0000

          k =-0.5000-0.5000 0.6106 (  5348 PWs)   bands (ev):

   -79.3799 -79.3799 -79.3799 -79.3799 -46.2306 -46.2306 -46.2306 -46.2306
   -32.8094 -32.8094 -32.8094 -32.8094 -32.6314 -32.6314 -32.6314 -32.6314
    -5.6620  -5.6620  -5.6620  -5.6620  -5.4687  -5.4687  -5.4687  -5.4687
     5.6569   5.6569   5.6569   5.6569   6.2197   6.2197   6.2197   6.2197
     6.7700   6.7700   6.7700   6.7700   8.3297   8.3297   8.3297   8.3297
     9.5972   9.5972   9.5972   9.5972  10.5883  10.5883  10.5883  10.5883
    11.9561  11.9561  11.9561  11.9561  12.6863  12.6863  12.6863  12.6863
    13.4040  13.4040  13.4040  13.4040  16.1263  16.1263  16.1263  16.1263
    17.0374  17.0374  17.0374  17.0374  23.0825  23.0825

     occupation numbers 
     1.0000   1.0000   1.0000   1.0000   1.0000   1.0000   1.0000   1.0000
     1.0000   1.0000   1.0000   1.0000   1.0000   1.0000   1.0000   1.0000
     1.0000   1.0000   1.0000   1.0000   1.0000   1.0000   1.0000   1.0000
     1.0000   1.0000   1.0000   1.0000   1.0000   1.0000   1.0000   1.0000
     1.0000   1.0000   1.0000   1.0000   1.0000   1.0000   1.0000   1.0000
     1.0000   1.0000   1.0000   1.0000   1.0000   1.0000   1.0000   1.0000
     1.0000   1.0000   1.0000   1.0000   1.0000   1.0000   1.0000   1.0000
     1.0000   1.0000   1.0000   1.0000  -0.0000  -0.0000  -0.0000  -0.0000
    -0.0000  -0.0000  -0.0000  -0.0000  -0.0000  -0.0000

     the Fermi energy is    13.8450 ev

!    total energy              =    -553.08065483 Ry
     estimated scf accuracy    <          1.9E-11 Ry
     smearing contrib. (-TS)   =       0.00005149 Ry
     internal energy E=F+TS    =    -553.08070632 Ry

     The total energy is F=E-TS. E is the sum of the following terms:
     one-electron contribution =    -190.91091982 Ry
     hartree contribution      =     122.73038016 Ry
     xc contribution           =     -69.91415615 Ry
     ewald contribution        =    -414.98601052 Ry

     convergence has been achieved in  10 iterations

     Forces acting on atoms (cartesian axes, Ry/au):

     atom    1 type  2   force =     0.00000000    0.00000000    0.00000000
     atom    2 type  2   force =     0.00000000    0.00000000   -0.00000000
     atom    3 type  1   force =     0.00075248   -0.00075248    0.00000000
     atom    4 type  1   force =    -0.00075248   -0.00075248   -0.00000000
     atom    5 type  1   force =     0.00075248    0.00075248   -0.00000000
     atom    6 type  1   force =    -0.00075248    0.00075248    0.00000000
     The non-local contrib.  to forces
     atom    1 type  2   force =     0.00000000    0.00000000   -0.00000000
     atom    2 type  2   force =     0.00000000    0.00000000    0.00000000
     atom    3 type  1   force =    -0.05376853    0.05376853    0.00000000
     atom    4 type  1   force =     0.05376853    0.05376853    0.00000000
     atom    5 type  1   force =    -0.05376853   -0.05376853    0.00000000
     atom    6 type  1   force =     0.05376853   -0.05376853    0.00000000
     The ionic contribution  to forces
     atom    1 type  2   force =    -0.00000000   -0.00000000    0.00000000
     atom    2 type  2   force =     0.00000000    0.00000000   -0.00000000
     atom    3 type  1   force =     1.42937233   -1.42937233    0.00000000
     atom    4 type  1   force =    -1.42937233   -1.42937233   -0.00000000
     atom    5 type  1   force =     1.42937233    1.42937233   -0.00000000
     atom    6 type  1   force =    -1.42937233    1.42937233    0.00000000
     The local contribution  to forces
     atom    1 type  2   force =     0.00000000    0.00000000   -0.00000000
     atom    2 type  2   force =     0.00000000    0.00000000    0.00000000
     atom    3 type  1   force =    -1.37485098    1.37485098    0.00000000
     atom    4 type  1   force =     1.37485098    1.37485098    0.00000000
     atom    5 type  1   force =    -1.37485098   -1.37485098   -0.00000000
     atom    6 type  1   force =     1.37485098   -1.37485098    0.00000000
     The core correction contribution to forces
     atom    1 type  2   force =     0.00000000    0.00000000    0.00000000
     atom    2 type  2   force =     0.00000000    0.00000000    0.00000000
     atom    3 type  1   force =     0.00000000    0.00000000    0.00000000
     atom    4 type  1   force =     0.00000000    0.00000000    0.00000000
     atom    5 type  1   force =     0.00000000    0.00000000    0.00000000
     atom    6 type  1   force =     0.00000000    0.00000000    0.00000000
     The Hubbard contrib.    to forces
     atom    1 type  2   force =     0.00000000    0.00000000    0.00000000
     atom    2 type  2   force =     0.00000000    0.00000000    0.00000000
     atom    3 type  1   force =     0.00000000    0.00000000    0.00000000
     atom    4 type  1   force =     0.00000000    0.00000000    0.00000000
     atom    5 type  1   force =     0.00000000    0.00000000    0.00000000
     atom    6 type  1   force =     0.00000000    0.00000000    0.00000000
     The SCF correction term to forces
     atom    1 type  2   force =    -0.00000000   -0.00000000    0.00000000
     atom    2 type  2   force =    -0.00000000   -0.00000000    0.00000000
     atom    3 type  1   force =    -0.00000035    0.00000035   -0.00000000
     atom    4 type  1   force =     0.00000035    0.00000035   -0.00000000
     atom    5 type  1   force =    -0.00000035   -0.00000035   -0.00000000
     atom    6 type  1   force =     0.00000035   -0.00000035   -0.00000000

     Total force =     0.002128     Total SCF correction =     0.000001


     Computing stress (Cartesian axis) and pressure

          total   stress  (Ry/bohr**3)                   (kbar)     P=      -20.82
  -0.00012412   0.00000000   0.00000000          -18.26        0.00        0.00
   0.00000000  -0.00012412   0.00000000            0.00      -18.26        0.00
   0.00000000   0.00000000  -0.00017635            0.00        0.00      -25.94

     kinetic stress (kbar)  48453.67      0.00      0.00
                                0.00  48453.67      0.00
                                0.00      0.00  47524.74

     local   stress (kbar) -12686.79     -0.00      0.00
                               -0.00 -12686.79     -0.00
                                0.00     -0.00 -44399.29

     nonloc. stress (kbar)  14528.41      0.00      0.00
                                0.00  14528.41      0.00
                                0.00      0.00  14741.11

     hartree stress (kbar)   9610.78      0.00     -0.00
                                0.00   9610.78      0.00
                               -0.00      0.00  21378.38

     exc-cor stress (kbar)  -7288.13     -0.00      0.00
                               -0.00  -7288.13      0.00
                                0.00      0.00  -7263.44

     corecor stress (kbar)      0.00      0.00      0.00
                                0.00      0.00      0.00
                                0.00      0.00      0.00

     ewald   stress (kbar) -52636.21     -0.00     -0.00
                               -0.00 -52636.21     -0.00
                               -0.00     -0.00 -32007.45

     hubbard stress (kbar)      0.00      0.00      0.00
                                0.00      0.00      0.00
                                0.00      0.00      0.00

     DFT-D   stress (kbar)      0.00      0.00      0.00
                                0.00      0.00      0.00
                                0.00      0.00      0.00

     XDM     stress (kbar)      0.00      0.00      0.00
                                0.00      0.00      0.00
                                0.00      0.00      0.00

     dft-nl  stress (kbar)      0.00      0.00      0.00
                                0.00      0.00      0.00
                                0.00      0.00      0.00

     TS-vdW  stress (kbar)      0.00      0.00      0.00
                                0.00      0.00      0.00
                                0.00      0.00      0.00


                                0.00      0.00      0.00
                                0.00      0.00      0.00


                                0.00      0.00      0.00


     Writing all to output data dir tmp/espresso.save/
 
     init_run     :      6.03s CPU      3.13s WALL (       1 calls)
     electrons    :    204.30s CPU    104.67s WALL (       1 calls)
     forces       :     10.00s CPU      5.13s WALL (       1 calls)
     stress       :     14.62s CPU      7.38s WALL (       1 calls)

     Called by init_run:
     wfcinit      :      5.97s CPU      3.07s WALL (       1 calls)
     wfcinit:atom :      0.02s CPU      0.01s WALL (      60 calls)
     wfcinit:wfcr :      5.82s CPU      2.99s WALL (      60 calls)
     potinit      :      0.02s CPU      0.01s WALL (       1 calls)
     hinit0       :      0.03s CPU      0.03s WALL (       1 calls)

     Called by electrons:
     c_bands      :    187.16s CPU     95.84s WALL (      10 calls)
     sum_band     :     16.98s CPU      8.72s WALL (      10 calls)
     v_of_rho     :      0.05s CPU      0.03s WALL (      11 calls)
     v_h          :      0.01s CPU      0.00s WALL (      11 calls)
     v_xc         :      0.04s CPU      0.02s WALL (      11 calls)
     mix_rho      :      0.05s CPU      0.02s WALL (      10 calls)

     Called by c_bands:
     init_us_2    :      0.54s CPU      0.29s WALL (    1380 calls)
     init_us_2:cp :      0.53s CPU      0.28s WALL (    1380 calls)
     cegterg      :    173.09s CPU     88.68s WALL (     600 calls)

     Called by sum_band:
     sum_band:wei :      0.12s CPU      0.06s WALL (      10 calls)
     sum_band:loo :     16.83s CPU      8.64s WALL (      10 calls)
     sum_band:buf :      0.09s CPU      0.05s WALL (     600 calls)
     sum_band:ini :      0.17s CPU      0.09s WALL (     600 calls)

     Called by *egterg:
     cdiaghg      :     25.11s CPU     12.78s WALL (    2016 calls)
     cegterg:over :     10.86s CPU      5.53s WALL (    1416 calls)
     cegterg:upda :      8.50s CPU      4.33s WALL (    1416 calls)
     cegterg:last :     14.86s CPU      7.54s WALL (    1200 calls)
     cdiaghg:chol :      1.18s CPU      0.60s WALL (    2016 calls)
     cdiaghg:inve :      0.18s CPU      0.09s WALL (    2016 calls)
     cdiaghg:para :      2.63s CPU      1.34s WALL (    4032 calls)
     h_psi        :    114.99s CPU     59.15s WALL (    2076 calls)
     g_psi        :      0.16s CPU      0.08s WALL (    1416 calls)

     Called by h_psi:
     h_psi:calbec :     13.82s CPU      7.25s WALL (    2076 calls)
     vloc_psi     :     81.24s CPU     41.77s WALL (    2076 calls)
     add_vuspsi   :     19.67s CPU     10.01s WALL (    2076 calls)

     General routines
     calbec       :     17.38s CPU      9.10s WALL (    2376 calls)
     fft          :      0.05s CPU      0.03s WALL (     150 calls)
     ffts         :      0.01s CPU      0.01s WALL (      40 calls)
     fftw         :     91.88s CPU     47.24s WALL (  516800 calls)
 
     Parallel routines
 
     PWSCF        :   4m 2.00s CPU   2m 6.26s WALL

 
   This run was terminated on:  10:44:46  10Apr2022            

=------------------------------------------------------------------------------=
   JOB DONE.
=------------------------------------------------------------------------------=
