
     Program PWSCF v.7.0 starts on 10Apr2022 at 11:58:23 

     This program is part of the open-source Quantum ESPRESSO suite
     for quantum simulation of materials; please cite
         "P. Giannozzi et al., J. Phys.:Condens. Matter 21 395502 (2009);
         "P. Giannozzi et al., J. Phys.:Condens. Matter 29 465901 (2017);
         "P. Giannozzi et al., J. Chem. Phys. 152 154105 (2020);
          URL http://www.quantum-espresso.org", 
     in publications or presentations arising from this work. More details at
     http://www.quantum-espresso.org/quote

     Parallel version (MPI & OpenMP), running on      64 processor cores
     Number of MPI processes:                32
     Threads/MPI process:                     2

     MPI processes distributed on     1 nodes
     R & G space division:  proc/nbgrp/npool/nimage =      32
     230166 MiB available memory on the printing compute node when the environment starts
 
     Reading input from kpoints_5511.pwi
Warning: card &CELL ignored
Warning: card / ignored

     Current dimensions of program PWSCF are:
     Max number of different atomic species (ntypx) = 10
     Max number of k-points (npk) =  40000
     Max angular momentum in pseudopotentials (lmaxx) =  4

     Subspace diagonalization in iterative solution of the eigenvalue problem:
     one sub-group per band group will be used
     scalapack distributed-memory algorithm (size of sub-group:  5*  5 procs)

 
     Parallelization info
     --------------------
     sticks:   dense  smooth     PW     G-vecs:    dense   smooth      PW
     Min          58      58     17                 1342     1342     205
     Max          59      59     18                 1345     1345     207
     Sum        1885    1885    545                42999    42999    6571
 
     Using Slab Decomposition
 

     Title: 
     IrO2 Unit Cell                                                             


     bravais-lattice index     =            6
     lattice parameter (alat)  =       8.5888  a.u.
     unit-cell volume          =     444.6868 (a.u.)^3
     number of atoms/cell      =            6
     number of atomic types    =            2
     number of electrons       =        58.00
     number of Kohn-Sham states=           70
     kinetic-energy cutoff     =      80.0000  Ry
     charge density cutoff     =     320.0000  Ry
     scf convergence threshold =      1.0E-09
     mixing beta               =       0.7000
     number of iterations used =            8  plain     mixing
     Exchange-correlation= PBE
                           (   1   4   3   4   0   0   0)
     Non magnetic calculation with spin-orbit


     celldm(1)=   8.588800  celldm(2)=   0.000000  celldm(3)=   0.701870
     celldm(4)=   0.000000  celldm(5)=   0.000000  celldm(6)=   0.000000

     crystal axes: (cart. coord. in units of alat)
               a(1) = (   1.000000   0.000000   0.000000 )  
               a(2) = (   0.000000   1.000000   0.000000 )  
               a(3) = (   0.000000   0.000000   0.701870 )  

     reciprocal axes: (cart. coord. in units 2 pi/alat)
               b(1) = (  1.000000  0.000000  0.000000 )  
               b(2) = (  0.000000  1.000000  0.000000 )  
               b(3) = (  0.000000  0.000000  1.424765 )  


     PseudoPot. # 1 for O  read from file:
     ../../XX_PSEUDO/O_ONCV_PBE_fr.upf
     MD5 check sum: 59c925217d3b58c6d762355590b68b09
     Pseudo is Norm-conserving, Zval =  6.0
     Generated using ONCVPSP code by D. R. Hamann
     Using radial grid of  936 points,  6 beta functions with: 
                l(1) =   0
                l(2) =   0
                l(3) =   1
                l(4) =   1
                l(5) =   1
                l(6) =   1

     PseudoPot. # 2 for Ir read from file:
     ../../XX_PSEUDO/Ir_ONCV_PBE_fr.upf
     MD5 check sum: 924e909c4146afa09f62ee3401806954
     Pseudo is Norm-conserving, Zval = 17.0
     Generated using ONCVPSP code by D. R. Hamann
     Using radial grid of 1310 points, 14 beta functions with: 
                l(1) =   0
                l(2) =   0
                l(3) =   1
                l(4) =   1
                l(5) =   1
                l(6) =   1
                l(7) =   2
                l(8) =   2
                l(9) =   2
               l(10) =   2
               l(11) =   3
               l(12) =   3
               l(13) =   3
               l(14) =   3

     atomic species   valence    mass     pseudopotential
        O              6.00    15.99900     O ( 1.00)
        Ir            17.00   192.21700     Ir( 1.00)

     16 Sym. Ops., with inversion, found ( 8 have fractional translation)


                                    s                        frac. trans.

      isym =  1     identity                                     

 cryst.   s( 1) = (     1          0          0      )
                  (     0          1          0      )
                  (     0          0          1      )

 cart.    s( 1) = (  1.0000000  0.0000000  0.0000000 )
                  (  0.0000000  1.0000000  0.0000000 )
                  (  0.0000000  0.0000000  1.0000000 )


      isym =  2     180 deg rotation - cart. axis [0,0,1]        

 cryst.   s( 2) = (    -1          0          0      )
                  (     0         -1          0      )
                  (     0          0          1      )

 cart.    s( 2) = ( -1.0000000  0.0000000  0.0000000 )
                  (  0.0000000 -1.0000000  0.0000000 )
                  (  0.0000000  0.0000000  1.0000000 )


      isym =  3     180 deg rotation - cart. axis [0,1,0]        

 cryst.   s( 3) = (    -1          0          0      )    f =(  0.5000000 )
                  (     0          1          0      )       ( -0.5000000 )
                  (     0          0         -1      )       (  0.5000000 )

 cart.    s( 3) = ( -1.0000000  0.0000000  0.0000000 )    f =(  0.5000000 )
                  (  0.0000000  1.0000000  0.0000000 )       ( -0.5000000 )
                  (  0.0000000  0.0000000 -1.0000000 )       (  0.3509351 )


      isym =  4     180 deg rotation - cart. axis [1,0,0]        

 cryst.   s( 4) = (     1          0          0      )    f =( -0.5000000 )
                  (     0         -1          0      )       (  0.5000000 )
                  (     0          0         -1      )       (  0.5000000 )

 cart.    s( 4) = (  1.0000000  0.0000000  0.0000000 )    f =( -0.5000000 )
                  (  0.0000000 -1.0000000  0.0000000 )       (  0.5000000 )
                  (  0.0000000  0.0000000 -1.0000000 )       (  0.3509351 )


      isym =  5     180 deg rotation - cart. axis [1,1,0]        

 cryst.   s( 5) = (     0          1          0      )
                  (     1          0          0      )
                  (     0          0         -1      )

 cart.    s( 5) = (  0.0000000  1.0000000  0.0000000 )
                  (  1.0000000  0.0000000  0.0000000 )
                  (  0.0000000  0.0000000 -1.0000000 )


      isym =  6     180 deg rotation - cart. axis [1,-1,0]       

 cryst.   s( 6) = (     0         -1          0      )
                  (    -1          0          0      )
                  (     0          0         -1      )

 cart.    s( 6) = (  0.0000000 -1.0000000  0.0000000 )
                  ( -1.0000000  0.0000000  0.0000000 )
                  (  0.0000000  0.0000000 -1.0000000 )


      isym =  7      90 deg rotation - cart. axis [0,0,-1]       

 cryst.   s( 7) = (     0         -1          0      )    f =( -0.5000000 )
                  (     1          0          0      )       (  0.5000000 )
                  (     0          0          1      )       ( -0.5000000 )

 cart.    s( 7) = (  0.0000000  1.0000000  0.0000000 )    f =( -0.5000000 )
                  ( -1.0000000  0.0000000  0.0000000 )       (  0.5000000 )
                  (  0.0000000  0.0000000  1.0000000 )       ( -0.3509351 )


      isym =  8      90 deg rotation - cart. axis [0,0,1]        

 cryst.   s( 8) = (     0          1          0      )    f =(  0.5000000 )
                  (    -1          0          0      )       ( -0.5000000 )
                  (     0          0          1      )       ( -0.5000000 )

 cart.    s( 8) = (  0.0000000 -1.0000000  0.0000000 )    f =(  0.5000000 )
                  (  1.0000000  0.0000000  0.0000000 )       ( -0.5000000 )
                  (  0.0000000  0.0000000  1.0000000 )       ( -0.3509351 )


      isym =  9     inversion                                    

 cryst.   s( 9) = (    -1          0          0      )
                  (     0         -1          0      )
                  (     0          0         -1      )

 cart.    s( 9) = ( -1.0000000  0.0000000  0.0000000 )
                  (  0.0000000 -1.0000000  0.0000000 )
                  (  0.0000000  0.0000000 -1.0000000 )


      isym = 10     inv. 180 deg rotation - cart. axis [0,0,1]   

 cryst.   s(10) = (     1          0          0      )
                  (     0          1          0      )
                  (     0          0         -1      )

 cart.    s(10) = (  1.0000000  0.0000000  0.0000000 )
                  (  0.0000000  1.0000000  0.0000000 )
                  (  0.0000000  0.0000000 -1.0000000 )


      isym = 11     inv. 180 deg rotation - cart. axis [0,1,0]   

 cryst.   s(11) = (     1          0          0      )    f =( -0.5000000 )
                  (     0         -1          0      )       (  0.5000000 )
                  (     0          0          1      )       ( -0.5000000 )

 cart.    s(11) = (  1.0000000  0.0000000  0.0000000 )    f =( -0.5000000 )
                  (  0.0000000 -1.0000000  0.0000000 )       (  0.5000000 )
                  (  0.0000000  0.0000000  1.0000000 )       ( -0.3509351 )


      isym = 12     inv. 180 deg rotation - cart. axis [1,0,0]   

 cryst.   s(12) = (    -1          0          0      )    f =(  0.5000000 )
                  (     0          1          0      )       ( -0.5000000 )
                  (     0          0          1      )       ( -0.5000000 )

 cart.    s(12) = ( -1.0000000  0.0000000  0.0000000 )    f =(  0.5000000 )
                  (  0.0000000  1.0000000  0.0000000 )       ( -0.5000000 )
                  (  0.0000000  0.0000000  1.0000000 )       ( -0.3509351 )


      isym = 13     inv. 180 deg rotation - cart. axis [1,1,0]   

 cryst.   s(13) = (     0         -1          0      )
                  (    -1          0          0      )
                  (     0          0          1      )

 cart.    s(13) = (  0.0000000 -1.0000000  0.0000000 )
                  ( -1.0000000  0.0000000  0.0000000 )
                  (  0.0000000  0.0000000  1.0000000 )


      isym = 14     inv. 180 deg rotation - cart. axis [1,-1,0]  

 cryst.   s(14) = (     0          1          0      )
                  (     1          0          0      )
                  (     0          0          1      )

 cart.    s(14) = (  0.0000000  1.0000000  0.0000000 )
                  (  1.0000000  0.0000000  0.0000000 )
                  (  0.0000000  0.0000000  1.0000000 )


      isym = 15     inv.  90 deg rotation - cart. axis [0,0,-1]  

 cryst.   s(15) = (     0          1          0      )    f =(  0.5000000 )
                  (    -1          0          0      )       ( -0.5000000 )
                  (     0          0         -1      )       (  0.5000000 )

 cart.    s(15) = (  0.0000000 -1.0000000  0.0000000 )    f =(  0.5000000 )
                  (  1.0000000  0.0000000  0.0000000 )       ( -0.5000000 )
                  (  0.0000000  0.0000000 -1.0000000 )       (  0.3509351 )


      isym = 16     inv.  90 deg rotation - cart. axis [0,0,1]   

 cryst.   s(16) = (     0         -1          0      )    f =( -0.5000000 )
                  (     1          0          0      )       (  0.5000000 )
                  (     0          0         -1      )       (  0.5000000 )

 cart.    s(16) = (  0.0000000  1.0000000  0.0000000 )    f =( -0.5000000 )
                  ( -1.0000000  0.0000000  0.0000000 )       (  0.5000000 )
                  (  0.0000000  0.0000000 -1.0000000 )       (  0.3509351 )


     double point group D_4h(4/mmm)
     there are 14 classes and  4 irreducible representations
     the character table:

       E     -E    2C4   -2C4   C2    2C2' 2C2'' i     -i    2S4   -2S4   s_h 
                               -C2   -2C2' -2C2'                         -s_h 
G_6+   2.00 -2.00  1.41 -1.41  0.00  0.00  0.00  2.00 -2.00  1.41 -1.41  0.00
G_7+   2.00 -2.00 -1.41  1.41  0.00  0.00  0.00  2.00 -2.00 -1.41  1.41  0.00
G_6-   2.00 -2.00  1.41 -1.41  0.00  0.00  0.00 -2.00  2.00 -1.41  1.41  0.00
G_7-   2.00 -2.00 -1.41  1.41  0.00  0.00  0.00 -2.00  2.00  1.41 -1.41  0.00

        2s_v  2s_d
       -2s_v -2s_d
G_6+   0.00  0.00
G_7+   0.00  0.00
G_6-   0.00  0.00
G_7-   0.00  0.00

     the symmetry operations in each class and the name of the first element:

     E             1
          identity                                               
     -E           -1
          identity E                                             
     2C4           7    8
           90 deg rotation - cart. axis [0,0,-1]                 
     -2C4         -7   -8
           90 deg rotation - cart. axis [0,0,-1] E               
      C2  -C2      2   -2
          180 deg rotation - cart. axis [0,0,1]                  
      2C2'-2C2'    3   -3    4   -4
          180 deg rotation - cart. axis [0,1,0]                  
     2C2''-2C2'    5   -5   -6    6
          180 deg rotation - cart. axis [1,1,0]                  
     i             9
          inversion                                              
     -i           -9
          inversion E                                            
     2S4          15   16
          inv.  90 deg rotation - cart. axis [0,0,-1]            
     -2S4        -15  -16
          inv.  90 deg rotation - cart. axis [0,0,-1] E          
      s_h -s_h    10  -10
          inv. 180 deg rotation - cart. axis [0,0,1]             
      2s_v-2s_v   11  -11   12  -12
          inv. 180 deg rotation - cart. axis [0,1,0]             
      2s_d-2s_d   13  -13  -14   14
          inv. 180 deg rotation - cart. axis [1,1,0]             

   Cartesian axes

     site n.     atom                  positions (alat units)
         1           Ir  tau(   1) = (   0.0000000   0.0000000   0.0000000  )
         2           Ir  tau(   2) = (   0.5000000   0.5000000   0.3509351  )
         3           O   tau(   3) = (   0.1916000   0.8084000   0.3509351  )
         4           O   tau(   4) = (   0.3084000   0.3084000   0.0000000  )
         5           O   tau(   5) = (   0.6916000   0.6916000   0.0000000  )
         6           O   tau(   6) = (   0.8084000   0.1916000   0.3509351  )

   Crystallographic axes

     site n.     atom                  positions (cryst. coord.)
         1           Ir  tau(   1) = (  0.0000000  0.0000000  0.0000000  )
         2           Ir  tau(   2) = (  0.5000000  0.5000000  0.5000000  )
         3           O   tau(   3) = (  0.1916000  0.8084000  0.5000000  )
         4           O   tau(   4) = (  0.3084000  0.3084000  0.0000000  )
         5           O   tau(   5) = (  0.6916000  0.6916000  0.0000000  )
         6           O   tau(   6) = (  0.8084000  0.1916000  0.5000000  )

     number of k points=    36  Methfessel-Paxton smearing, width (Ry)=  0.0050
                       cart. coord. in units 2pi/alat
        k(    1) = (   0.0000000   0.0000000   0.0000000), wk =   0.0036364
        k(    2) = (   0.0000000   0.0000000   0.1295241), wk =   0.0072727
        k(    3) = (   0.0000000   0.0000000   0.2590482), wk =   0.0072727
        k(    4) = (   0.0000000   0.0000000   0.3885722), wk =   0.0072727
        k(    5) = (   0.0000000   0.0000000   0.5180963), wk =   0.0072727
        k(    6) = (   0.0000000   0.0000000   0.6476204), wk =   0.0072727
        k(    7) = (   0.0000000   0.2000000   0.0000000), wk =   0.0145455
        k(    8) = (   0.0000000   0.2000000   0.1295241), wk =   0.0290909
        k(    9) = (   0.0000000   0.2000000   0.2590482), wk =   0.0290909
        k(   10) = (   0.0000000   0.2000000   0.3885722), wk =   0.0290909
        k(   11) = (   0.0000000   0.2000000   0.5180963), wk =   0.0290909
        k(   12) = (   0.0000000   0.2000000   0.6476204), wk =   0.0290909
        k(   13) = (   0.0000000   0.4000000   0.0000000), wk =   0.0145455
        k(   14) = (   0.0000000   0.4000000   0.1295241), wk =   0.0290909
        k(   15) = (   0.0000000   0.4000000   0.2590482), wk =   0.0290909
        k(   16) = (   0.0000000   0.4000000   0.3885722), wk =   0.0290909
        k(   17) = (   0.0000000   0.4000000   0.5180963), wk =   0.0290909
        k(   18) = (   0.0000000   0.4000000   0.6476204), wk =   0.0290909
        k(   19) = (   0.2000000   0.2000000   0.0000000), wk =   0.0145455
        k(   20) = (   0.2000000   0.2000000   0.1295241), wk =   0.0290909
        k(   21) = (   0.2000000   0.2000000   0.2590482), wk =   0.0290909
        k(   22) = (   0.2000000   0.2000000   0.3885722), wk =   0.0290909
        k(   23) = (   0.2000000   0.2000000   0.5180963), wk =   0.0290909
        k(   24) = (   0.2000000   0.2000000   0.6476204), wk =   0.0290909
        k(   25) = (   0.2000000   0.4000000   0.0000000), wk =   0.0290909
        k(   26) = (   0.2000000   0.4000000   0.1295241), wk =   0.0581818
        k(   27) = (   0.2000000   0.4000000   0.2590482), wk =   0.0581818
        k(   28) = (   0.2000000   0.4000000   0.3885722), wk =   0.0581818
        k(   29) = (   0.2000000   0.4000000   0.5180963), wk =   0.0581818
        k(   30) = (   0.2000000   0.4000000   0.6476204), wk =   0.0581818
        k(   31) = (   0.4000000   0.4000000   0.0000000), wk =   0.0145455
        k(   32) = (   0.4000000   0.4000000   0.1295241), wk =   0.0290909
        k(   33) = (   0.4000000   0.4000000   0.2590482), wk =   0.0290909
        k(   34) = (   0.4000000   0.4000000   0.3885722), wk =   0.0290909
        k(   35) = (   0.4000000   0.4000000   0.5180963), wk =   0.0290909
        k(   36) = (   0.4000000   0.4000000   0.6476204), wk =   0.0290909

                       cryst. coord.
        k(    1) = (   0.0000000   0.0000000   0.0000000), wk =   0.0036364
        k(    2) = (   0.0000000   0.0000000   0.0909091), wk =   0.0072727
        k(    3) = (   0.0000000   0.0000000   0.1818182), wk =   0.0072727
        k(    4) = (   0.0000000   0.0000000   0.2727273), wk =   0.0072727
        k(    5) = (   0.0000000   0.0000000   0.3636364), wk =   0.0072727
        k(    6) = (   0.0000000   0.0000000   0.4545455), wk =   0.0072727
        k(    7) = (   0.0000000   0.2000000   0.0000000), wk =   0.0145455
        k(    8) = (   0.0000000   0.2000000   0.0909091), wk =   0.0290909
        k(    9) = (   0.0000000   0.2000000   0.1818182), wk =   0.0290909
        k(   10) = (   0.0000000   0.2000000   0.2727273), wk =   0.0290909
        k(   11) = (   0.0000000   0.2000000   0.3636364), wk =   0.0290909
        k(   12) = (   0.0000000   0.2000000   0.4545455), wk =   0.0290909
        k(   13) = (   0.0000000   0.4000000   0.0000000), wk =   0.0145455
        k(   14) = (   0.0000000   0.4000000   0.0909091), wk =   0.0290909
        k(   15) = (   0.0000000   0.4000000   0.1818182), wk =   0.0290909
        k(   16) = (   0.0000000   0.4000000   0.2727273), wk =   0.0290909
        k(   17) = (   0.0000000   0.4000000   0.3636364), wk =   0.0290909
        k(   18) = (   0.0000000   0.4000000   0.4545455), wk =   0.0290909
        k(   19) = (   0.2000000   0.2000000   0.0000000), wk =   0.0145455
        k(   20) = (   0.2000000   0.2000000   0.0909091), wk =   0.0290909
        k(   21) = (   0.2000000   0.2000000   0.1818182), wk =   0.0290909
        k(   22) = (   0.2000000   0.2000000   0.2727273), wk =   0.0290909
        k(   23) = (   0.2000000   0.2000000   0.3636364), wk =   0.0290909
        k(   24) = (   0.2000000   0.2000000   0.4545455), wk =   0.0290909
        k(   25) = (   0.2000000   0.4000000   0.0000000), wk =   0.0290909
        k(   26) = (   0.2000000   0.4000000   0.0909091), wk =   0.0581818
        k(   27) = (   0.2000000   0.4000000   0.1818182), wk =   0.0581818
        k(   28) = (   0.2000000   0.4000000   0.2727273), wk =   0.0581818
        k(   29) = (   0.2000000   0.4000000   0.3636364), wk =   0.0581818
        k(   30) = (   0.2000000   0.4000000   0.4545455), wk =   0.0581818
        k(   31) = (   0.4000000   0.4000000   0.0000000), wk =   0.0145455
        k(   32) = (   0.4000000   0.4000000   0.0909091), wk =   0.0290909
        k(   33) = (   0.4000000   0.4000000   0.1818182), wk =   0.0290909
        k(   34) = (   0.4000000   0.4000000   0.2727273), wk =   0.0290909
        k(   35) = (   0.4000000   0.4000000   0.3636364), wk =   0.0290909
        k(   36) = (   0.4000000   0.4000000   0.4545455), wk =   0.0290909

     Dense  grid:    42999 G-vectors     FFT dimensions: (  50,  50,  36)

     Dynamical RAM for                 wfc:       0.36 MB

     Dynamical RAM for     wfc (w. buffer):      13.20 MB

     Dynamical RAM for           str. fact:       0.04 MB

     Dynamical RAM for           local pot:       0.00 MB

     Dynamical RAM for          nlocal pot:       0.46 MB

     Dynamical RAM for                qrad:      20.10 MB

     Dynamical RAM for          rho,v,vnew:       0.70 MB

     Dynamical RAM for               rhoin:       0.23 MB

     Dynamical RAM for            rho*nmix:       1.31 MB

     Dynamical RAM for           G-vectors:       0.09 MB

     Dynamical RAM for          h,s,v(r/c):       0.04 MB

     Dynamical RAM for          <psi|beta>:       0.38 MB

     Dynamical RAM for                 psi:       0.71 MB

     Dynamical RAM for                hpsi:       0.71 MB

     Dynamical RAM for      wfcinit/wfcrot:       0.67 MB

     Estimated static dynamical RAM per process >      35.19 MB

     Estimated max dynamical RAM per process >      38.35 MB

     Estimated total dynamical RAM >       1.20 GB

     Initial potential from superposition of free atoms

     starting charge      57.9997, renormalised to      58.0000
     Starting wfcs are   72 randomized atomic wfcs

     total cpu time spent up to now is        2.0 secs

     Self-consistent Calculation

     iteration #  1     ecut=    80.00 Ry     beta= 0.70
     Davidson diagonalization with overlap

---- Real-time Memory Report at c_bands before calling an iterative solver
            87 MiB given to the printing process from OS
             0 MiB allocation reported by mallinfo(arena+hblkhd)
        228435 MiB available memory on the node where the printing process lives
------------------
     ethr =  1.00E-02,  avg # of iterations =  2.6

     total cpu time spent up to now is        8.2 secs

     total energy              =    -552.42833517 Ry
     estimated scf accuracy    <       1.21329078 Ry

     iteration #  2     ecut=    80.00 Ry     beta= 0.70
     Davidson diagonalization with overlap

---- Real-time Memory Report at c_bands before calling an iterative solver
            94 MiB given to the printing process from OS
             0 MiB allocation reported by mallinfo(arena+hblkhd)
        228294 MiB available memory on the node where the printing process lives
------------------
     ethr =  2.09E-03,  avg # of iterations =  2.0

     total cpu time spent up to now is       15.0 secs

     total energy              =    -552.28955760 Ry
     estimated scf accuracy    <       4.25491718 Ry

     iteration #  3     ecut=    80.00 Ry     beta= 0.70
     Davidson diagonalization with overlap

---- Real-time Memory Report at c_bands before calling an iterative solver
            95 MiB given to the printing process from OS
             0 MiB allocation reported by mallinfo(arena+hblkhd)
        228174 MiB available memory on the node where the printing process lives
------------------
     ethr =  2.09E-03,  avg # of iterations =  2.0

     total cpu time spent up to now is       21.4 secs

     total energy              =    -553.07587636 Ry
     estimated scf accuracy    <       0.03403782 Ry

     iteration #  4     ecut=    80.00 Ry     beta= 0.70
     Davidson diagonalization with overlap

---- Real-time Memory Report at c_bands before calling an iterative solver
            96 MiB given to the printing process from OS
             0 MiB allocation reported by mallinfo(arena+hblkhd)
        228155 MiB available memory on the node where the printing process lives
------------------
     ethr =  5.87E-05,  avg # of iterations =  2.4

     total cpu time spent up to now is       27.7 secs

     total energy              =    -553.07936897 Ry
     estimated scf accuracy    <       0.00492690 Ry

     iteration #  5     ecut=    80.00 Ry     beta= 0.70
     Davidson diagonalization with overlap

---- Real-time Memory Report at c_bands before calling an iterative solver
            98 MiB given to the printing process from OS
             0 MiB allocation reported by mallinfo(arena+hblkhd)
        228137 MiB available memory on the node where the printing process lives
------------------
     ethr =  8.49E-06,  avg # of iterations =  2.2

     total cpu time spent up to now is       33.4 secs

     total energy              =    -553.08023510 Ry
     estimated scf accuracy    <       0.00025384 Ry

     iteration #  6     ecut=    80.00 Ry     beta= 0.70
     Davidson diagonalization with overlap

---- Real-time Memory Report at c_bands before calling an iterative solver
           101 MiB given to the printing process from OS
             0 MiB allocation reported by mallinfo(arena+hblkhd)
        228122 MiB available memory on the node where the printing process lives
------------------
     ethr =  4.38E-07,  avg # of iterations =  2.4

     total cpu time spent up to now is       39.1 secs

     total energy              =    -553.08026686 Ry
     estimated scf accuracy    <       0.00001030 Ry

     iteration #  7     ecut=    80.00 Ry     beta= 0.70
     Davidson diagonalization with overlap

---- Real-time Memory Report at c_bands before calling an iterative solver
           101 MiB given to the printing process from OS
             0 MiB allocation reported by mallinfo(arena+hblkhd)
        228114 MiB available memory on the node where the printing process lives
------------------
     ethr =  1.78E-08,  avg # of iterations =  2.0

     total cpu time spent up to now is       45.8 secs

     total energy              =    -553.08027023 Ry
     estimated scf accuracy    <       0.00000049 Ry

     iteration #  8     ecut=    80.00 Ry     beta= 0.70
     Davidson diagonalization with overlap

---- Real-time Memory Report at c_bands before calling an iterative solver
           102 MiB given to the printing process from OS
             0 MiB allocation reported by mallinfo(arena+hblkhd)
        228088 MiB available memory on the node where the printing process lives
------------------
     ethr =  8.41E-10,  avg # of iterations =  2.0

     total cpu time spent up to now is       51.4 secs

     total energy              =    -553.08027026 Ry
     estimated scf accuracy    <       0.00000007 Ry

     iteration #  9     ecut=    80.00 Ry     beta= 0.70
     Davidson diagonalization with overlap

---- Real-time Memory Report at c_bands before calling an iterative solver
           102 MiB given to the printing process from OS
             0 MiB allocation reported by mallinfo(arena+hblkhd)
        228086 MiB available memory on the node where the printing process lives
------------------
     ethr =  1.27E-10,  avg # of iterations =  2.0

     total cpu time spent up to now is       57.7 secs

     total energy              =    -553.08027027 Ry
     estimated scf accuracy    <          3.6E-09 Ry

     iteration # 10     ecut=    80.00 Ry     beta= 0.70
     Davidson diagonalization with overlap

---- Real-time Memory Report at c_bands before calling an iterative solver
           103 MiB given to the printing process from OS
             0 MiB allocation reported by mallinfo(arena+hblkhd)
        228084 MiB available memory on the node where the printing process lives
------------------
     ethr =  6.22E-12,  avg # of iterations =  2.1

     total cpu time spent up to now is       64.1 secs

     End of self-consistent calculation

          k = 0.0000 0.0000 0.0000 (  5409 PWs)   bands (ev):

   -79.3900 -79.3900 -79.3886 -79.3886 -46.2323 -46.2323 -46.2215 -46.2215
   -32.7701 -32.7701 -32.7574 -32.7574 -32.6287 -32.6287 -32.6164 -32.6164
    -7.0695  -7.0695  -5.9134  -5.9134  -4.9980  -4.9980  -4.7966  -4.7966
     4.2712   4.2712   4.5185   4.5185   6.0336   6.0336   6.1452   6.1452
     6.2591   6.2591   8.7899   8.7899   8.9428   8.9428   9.2006   9.2006
    10.3375  10.3375  10.9899  10.9899  10.9946  10.9946  11.0370  11.0370
    11.1978  11.1978  11.3772  11.3772  11.6538  11.6538  11.6723  11.6723
    12.0547  12.0547  14.6422  14.6422  15.0678  15.0678  17.6887  17.6887
    17.8985  17.8985  18.0457  18.0457  19.4498  19.4498

     occupation numbers 
     1.0000   1.0000   1.0000   1.0000   1.0000   1.0000   1.0000   1.0000
     1.0000   1.0000   1.0000   1.0000   1.0000   1.0000   1.0000   1.0000
     1.0000   1.0000   1.0000   1.0000   1.0000   1.0000   1.0000   1.0000
     1.0000   1.0000   1.0000   1.0000   1.0000   1.0000   1.0000   1.0000
     1.0000   1.0000   1.0000   1.0000   1.0000   1.0000   1.0000   1.0000
     1.0000   1.0000   1.0000   1.0000   1.0000   1.0000   1.0000   1.0000
     1.0000   1.0000   1.0000   1.0000   1.0000   1.0000   1.0000   1.0000
     1.0000   1.0000  -0.0000  -0.0000  -0.0000  -0.0000  -0.0000  -0.0000
    -0.0000  -0.0000  -0.0000  -0.0000  -0.0000  -0.0000

          k = 0.0000 0.0000 0.1295 (  5381 PWs)   bands (ev):

   -79.3897 -79.3897 -79.3885 -79.3885 -46.2329 -46.2329 -46.2226 -46.2226
   -32.7716 -32.7716 -32.7618 -32.7618 -32.6324 -32.6324 -32.6182 -32.6182
    -6.9937  -6.9937  -5.8733  -5.8733  -5.0340  -5.0340  -4.8447  -4.8447
     4.3812   4.3812   4.5984   4.5984   6.1000   6.1000   6.1906   6.1906
     6.3388   6.3388   8.4855   8.4855   9.0067   9.0067   9.2584   9.2584
     9.8321   9.8321  10.3638  10.3638  10.4862  10.4862  11.3710  11.3710
    11.5199  11.5199  11.5887  11.5887  11.6045  11.6045  12.1204  12.1204
    12.2731  12.2731  14.8231  14.8231  14.9897  14.9897  17.4884  17.4884
    17.8151  17.8151  18.1261  18.1261  19.2897  19.2897

     occupation numbers 
     1.0000   1.0000   1.0000   1.0000   1.0000   1.0000   1.0000   1.0000
     1.0000   1.0000   1.0000   1.0000   1.0000   1.0000   1.0000   1.0000
     1.0000   1.0000   1.0000   1.0000   1.0000   1.0000   1.0000   1.0000
     1.0000   1.0000   1.0000   1.0000   1.0000   1.0000   1.0000   1.0000
     1.0000   1.0000   1.0000   1.0000   1.0000   1.0000   1.0000   1.0000
     1.0000   1.0000   1.0000   1.0000   1.0000   1.0000   1.0000   1.0000
     1.0000   1.0000   1.0000   1.0000   1.0000   1.0000   1.0000   1.0000
     1.0000   1.0000  -0.0000  -0.0000  -0.0000  -0.0000  -0.0000  -0.0000
    -0.0000  -0.0000  -0.0000  -0.0000  -0.0000  -0.0000

          k = 0.0000 0.0000 0.2590 (  5377 PWs)   bands (ev):

   -79.3892 -79.3892 -79.3881 -79.3881 -46.2347 -46.2347 -46.2257 -46.2257
   -32.7771 -32.7771 -32.7741 -32.7741 -32.6407 -32.6407 -32.6225 -32.6225
    -6.7806  -6.7806  -5.7722  -5.7722  -5.1274  -5.1274  -4.9717  -4.9717
     4.6968   4.6968   4.8200   4.8200   6.2824   6.2824   6.3234   6.3234
     6.5773   6.5773   7.7968   7.7968   8.8859   8.8859   9.2918   9.2918
     9.3587   9.3587   9.8017   9.8017   9.8155   9.8155  11.0272  11.0272
    11.7209  11.7209  11.7727  11.7727  11.9827  11.9827  12.7567  12.7567
    12.7896  12.7896  14.7641  14.7641  15.2698  15.2698  17.0190  17.0190
    17.3222  17.3222  18.4048  18.4048  19.2257  19.2257

     occupation numbers 
     1.0000   1.0000   1.0000   1.0000   1.0000   1.0000   1.0000   1.0000
     1.0000   1.0000   1.0000   1.0000   1.0000   1.0000   1.0000   1.0000
     1.0000   1.0000   1.0000   1.0000   1.0000   1.0000   1.0000   1.0000
     1.0000   1.0000   1.0000   1.0000   1.0000   1.0000   1.0000   1.0000
     1.0000   1.0000   1.0000   1.0000   1.0000   1.0000   1.0000   1.0000
     1.0000   1.0000   1.0000   1.0000   1.0000   1.0000   1.0000   1.0000
     1.0000   1.0000   1.0000   1.0000   1.0000   1.0000   1.0000   1.0000
     1.0000   1.0000  -0.0000  -0.0000  -0.0000  -0.0000  -0.0000  -0.0000
    -0.0000  -0.0000  -0.0000  -0.0000  -0.0000  -0.0000

          k = 0.0000 0.0000 0.3886 (  5389 PWs)   bands (ev):

   -79.3884 -79.3884 -79.3875 -79.3875 -46.2368 -46.2368 -46.2298 -46.2298
   -32.7909 -32.7909 -32.7883 -32.7883 -32.6470 -32.6470 -32.6277 -32.6277
    -6.4717  -6.4717  -5.6620  -5.6620  -5.2413  -5.2413  -5.1349  -5.1349
     5.1268   5.1268   5.1666   5.1666   6.5185   6.5185   6.5400   6.5400
     6.9703   6.9703   7.0941   7.0941   8.1009   8.1009   8.9930   8.9930
     9.1893   9.1893   9.5058   9.5058   9.8089   9.8089  10.4172  10.4172
    11.8005  11.8005  12.0317  12.0317  12.1762  12.1762  13.3075  13.3075
    13.3337  13.3337  14.4259  14.4259  15.7497  15.7497  16.5573  16.5573
    16.8468  16.8468  17.8241  17.8241  20.1290  20.1290

     occupation numbers 
     1.0000   1.0000   1.0000   1.0000   1.0000   1.0000   1.0000   1.0000
     1.0000   1.0000   1.0000   1.0000   1.0000   1.0000   1.0000   1.0000
     1.0000   1.0000   1.0000   1.0000   1.0000   1.0000   1.0000   1.0000
     1.0000   1.0000   1.0000   1.0000   1.0000   1.0000   1.0000   1.0000
     1.0000   1.0000   1.0000   1.0000   1.0000   1.0000   1.0000   1.0000
     1.0000   1.0000   1.0000   1.0000   1.0000   1.0000   1.0000   1.0000
     1.0000   1.0000   1.0000   1.0000   1.0000   1.0000   1.0000   1.0000
     1.0000   1.0000  -0.0000  -0.0000  -0.0000  -0.0000  -0.0000  -0.0000
    -0.0000  -0.0000  -0.0000  -0.0000  -0.0000  -0.0000

          k = 0.0000 0.0000 0.5181 (  5369 PWs)   bands (ev):

   -79.3877 -79.3877 -79.3871 -79.3871 -46.2384 -46.2384 -46.2339 -46.2339
   -32.8065 -32.8065 -32.8024 -32.8024 -32.6479 -32.6479 -32.6332 -32.6332
    -6.1308  -6.1308  -5.6090  -5.6090  -5.3355  -5.3355  -5.2845  -5.2845
     5.4281   5.4281   5.6593   5.6593   6.4798   6.4798   6.8203   6.8203
     6.8790   6.8790   7.3979   7.3979   7.5367   7.5367   8.5313   8.5313
     8.6675   8.6675   9.6838   9.6838   9.7374   9.7374   9.9531   9.9531
    11.7895  11.7895  12.1536  12.1536  12.4046  12.4046  13.5980  13.5980
    13.7827  13.7827  14.1136  14.1136  16.0417  16.0417  16.2506  16.2506
    16.5613  16.5613  17.1593  17.1593  21.2745  21.2745

     occupation numbers 
     1.0000   1.0000   1.0000   1.0000   1.0000   1.0000   1.0000   1.0000
     1.0000   1.0000   1.0000   1.0000   1.0000   1.0000   1.0000   1.0000
     1.0000   1.0000   1.0000   1.0000   1.0000   1.0000   1.0000   1.0000
     1.0000   1.0000   1.0000   1.0000   1.0000   1.0000   1.0000   1.0000
     1.0000   1.0000   1.0000   1.0000   1.0000   1.0000   1.0000   1.0000
     1.0000   1.0000   1.0000   1.0000   1.0000   1.0000   1.0000   1.0000
     1.0000   1.0000   1.0000   1.0000   1.0000   1.0000   1.0000   1.0000
     1.0222   1.0222  -0.0000  -0.0000  -0.0000  -0.0000  -0.0000  -0.0000
    -0.0000  -0.0000  -0.0000  -0.0000  -0.0000  -0.0000

          k = 0.0000 0.0000 0.6476 (  5378 PWs)   bands (ev):

   -79.3871 -79.3871 -79.3869 -79.3869 -46.2386 -46.2386 -46.2371 -46.2371
   -32.8149 -32.8149 -32.8132 -32.8132 -32.6443 -32.6443 -32.6389 -32.6389
    -5.8355  -5.8355  -5.6565  -5.6565  -5.3910  -5.3910  -5.3787  -5.3787
     5.6496   5.6496   5.8017   5.8017   6.5235   6.5235   6.9017   6.9017
     7.0688   7.0688   7.0695   7.0695   8.1340   8.1340   8.2379   8.2379
     8.3359   8.3359   8.9186   8.9186   9.9087   9.9087   9.9886   9.9886
    11.8285  11.8285  11.9822  11.9822  12.8461  12.8461  13.3101  13.3101
    14.0645  14.0645  14.1268  14.1268  16.0885  16.0885  16.1152  16.1152
    16.5442  16.5442  16.7227  16.7227  22.4041  22.4041

     occupation numbers 
     1.0000   1.0000   1.0000   1.0000   1.0000   1.0000   1.0000   1.0000
     1.0000   1.0000   1.0000   1.0000   1.0000   1.0000   1.0000   1.0000
     1.0000   1.0000   1.0000   1.0000   1.0000   1.0000   1.0000   1.0000
     1.0000   1.0000   1.0000   1.0000   1.0000   1.0000   1.0000   1.0000
     1.0000   1.0000   1.0000   1.0000   1.0000   1.0000   1.0000   1.0000
     1.0000   1.0000   1.0000   1.0000   1.0000   1.0000   1.0000   1.0000
     1.0000   1.0000   1.0000   1.0000   1.0000   1.0000   1.0000   1.0000
    -0.0010  -0.0010  -0.0000  -0.0000  -0.0000  -0.0000  -0.0000  -0.0000
    -0.0000  -0.0000  -0.0000  -0.0000  -0.0000  -0.0000

          k = 0.0000 0.2000 0.0000 (  5363 PWs)   bands (ev):

   -79.3898 -79.3898 -79.3888 -79.3888 -46.2313 -46.2313 -46.2226 -46.2226
   -32.7678 -32.7678 -32.7575 -32.7575 -32.6288 -32.6288 -32.6189 -32.6189
    -6.9207  -6.9207  -5.9021  -5.9021  -5.1249  -5.1249  -4.9330  -4.9330
     4.6411   4.6411   4.8023   4.8023   6.0876   6.0876   6.1777   6.1777
     6.5099   6.5099   8.4093   8.4093   8.5645   8.5645   8.7581   8.7581
     9.7164   9.7164   9.9949   9.9949  10.6547  10.6547  11.4609  11.4609
    11.5614  11.5614  11.6566  11.6566  11.9115  11.9115  12.0592  12.0592
    12.4744  12.4744  14.7613  14.7613  15.2843  15.2843  17.5405  17.5405
    17.8445  17.8445  18.5625  18.5625  19.0937  19.0937

     occupation numbers 
     1.0000   1.0000   1.0000   1.0000   1.0000   1.0000   1.0000   1.0000
     1.0000   1.0000   1.0000   1.0000   1.0000   1.0000   1.0000   1.0000
     1.0000   1.0000   1.0000   1.0000   1.0000   1.0000   1.0000   1.0000
     1.0000   1.0000   1.0000   1.0000   1.0000   1.0000   1.0000   1.0000
     1.0000   1.0000   1.0000   1.0000   1.0000   1.0000   1.0000   1.0000
     1.0000   1.0000   1.0000   1.0000   1.0000   1.0000   1.0000   1.0000
     1.0000   1.0000   1.0000   1.0000   1.0000   1.0000   1.0000   1.0000
     1.0000   1.0000  -0.0000  -0.0000  -0.0000  -0.0000  -0.0000  -0.0000
    -0.0000  -0.0000  -0.0000  -0.0000  -0.0000  -0.0000

          k = 0.0000 0.2000 0.1295 (  5363 PWs)   bands (ev):

   -79.3896 -79.3896 -79.3886 -79.3886 -46.2320 -46.2320 -46.2236 -46.2236
   -32.7705 -32.7705 -32.7608 -32.7608 -32.6326 -32.6326 -32.6204 -32.6204
    -6.8482  -6.8482  -5.8570  -5.8570  -5.1596  -5.1596  -4.9754  -4.9754
     4.7324   4.7324   4.8809   4.8809   6.1338   6.1338   6.2052   6.2052
     6.6233   6.6233   8.3025   8.3025   8.4815   8.4815   8.7535   8.7535
     9.2405   9.2405  10.0471  10.0471  10.4082  10.4082  11.3268  11.3268
    11.6170  11.6170  11.9019  11.9019  11.9811  11.9811  12.2701  12.2701
    12.6256  12.6256  14.6980  14.6980  15.4152  15.4152  17.2733  17.2733
    17.5863  17.5863  18.8399  18.8399  18.9926  18.9926

     occupation numbers 
     1.0000   1.0000   1.0000   1.0000   1.0000   1.0000   1.0000   1.0000
     1.0000   1.0000   1.0000   1.0000   1.0000   1.0000   1.0000   1.0000
     1.0000   1.0000   1.0000   1.0000   1.0000   1.0000   1.0000   1.0000
     1.0000   1.0000   1.0000   1.0000   1.0000   1.0000   1.0000   1.0000
     1.0000   1.0000   1.0000   1.0000   1.0000   1.0000   1.0000   1.0000
     1.0000   1.0000   1.0000   1.0000   1.0000   1.0000   1.0000   1.0000
     1.0000   1.0000   1.0000   1.0000   1.0000   1.0000   1.0000   1.0000
     1.0000   1.0000  -0.0000  -0.0000  -0.0000  -0.0000  -0.0000  -0.0000
    -0.0000  -0.0000  -0.0000  -0.0000  -0.0000  -0.0000

          k = 0.0000 0.2000 0.2590 (  5361 PWs)   bands (ev):

   -79.3891 -79.3891 -79.3882 -79.3882 -46.2338 -46.2338 -46.2265 -46.2265
   -32.7804 -32.7804 -32.7694 -32.7694 -32.6407 -32.6407 -32.6242 -32.6242
    -6.6466  -6.6466  -5.7428  -5.7428  -5.2481  -5.2481  -5.0853  -5.0853
     4.9860   4.9860   5.0965   5.0965   6.2743   6.2743   6.3239   6.3239
     6.9132   6.9132   7.6258   7.6258   8.2609   8.2609   8.7662   8.7662
     9.0589   9.0589   9.7890   9.7890   9.9093   9.9093  11.2474  11.2474
    11.4108  11.4108  12.1690  12.1690  12.2773  12.2773  12.6568  12.6568
    13.0031  13.0031  14.5204  14.5204  15.7495  15.7495  16.7101  16.7101
    17.0927  17.0927  18.6509  18.6509  19.5432  19.5432

     occupation numbers 
     1.0000   1.0000   1.0000   1.0000   1.0000   1.0000   1.0000   1.0000
     1.0000   1.0000   1.0000   1.0000   1.0000   1.0000   1.0000   1.0000
     1.0000   1.0000   1.0000   1.0000   1.0000   1.0000   1.0000   1.0000
     1.0000   1.0000   1.0000   1.0000   1.0000   1.0000   1.0000   1.0000
     1.0000   1.0000   1.0000   1.0000   1.0000   1.0000   1.0000   1.0000
     1.0000   1.0000   1.0000   1.0000   1.0000   1.0000   1.0000   1.0000
     1.0000   1.0000   1.0000   1.0000   1.0000   1.0000   1.0000   1.0000
     1.0000   1.0000  -0.0000  -0.0000  -0.0000  -0.0000  -0.0000  -0.0000
    -0.0000  -0.0000  -0.0000  -0.0000  -0.0000  -0.0000

          k = 0.0000 0.2000 0.3886 (  5388 PWs)   bands (ev):

   -79.3883 -79.3883 -79.3876 -79.3876 -46.2362 -46.2362 -46.2304 -46.2304
   -32.7967 -32.7967 -32.7818 -32.7818 -32.6471 -32.6471 -32.6286 -32.6286
    -6.3612  -6.3612  -5.6290  -5.6290  -5.3433  -5.3433  -5.2153  -5.2153
     5.3236   5.3236   5.3981   5.3981   6.4134   6.4134   6.5512   6.5512
     6.9866   6.9866   7.3910   7.3910   7.5554   7.5554   8.8616   8.8616
     9.2170   9.2170   9.4013   9.4013   9.5623   9.5623  10.7757  10.7757
    11.5548  11.5548  12.1774  12.1774  12.3705  12.3705  13.0532  13.0532
    13.4593  13.4593  14.3065  14.3065  15.9676  15.9676  16.1533  16.1533
    16.7890  16.7890  18.2261  18.2261  20.4690  20.4690

     occupation numbers 
     1.0000   1.0000   1.0000   1.0000   1.0000   1.0000   1.0000   1.0000
     1.0000   1.0000   1.0000   1.0000   1.0000   1.0000   1.0000   1.0000
     1.0000   1.0000   1.0000   1.0000   1.0000   1.0000   1.0000   1.0000
     1.0000   1.0000   1.0000   1.0000   1.0000   1.0000   1.0000   1.0000
     1.0000   1.0000   1.0000   1.0000   1.0000   1.0000   1.0000   1.0000
     1.0000   1.0000   1.0000   1.0000   1.0000   1.0000   1.0000   1.0000
     1.0000   1.0000   1.0000   1.0000   1.0000   1.0000   1.0000   1.0000
     1.0000   1.0000  -0.0000  -0.0000  -0.0000  -0.0000  -0.0000  -0.0000
    -0.0000  -0.0000  -0.0000  -0.0000  -0.0000  -0.0000

          k = 0.0000 0.2000 0.5181 (  5385 PWs)   bands (ev):

   -79.3876 -79.3876 -79.3872 -79.3872 -46.2380 -46.2380 -46.2343 -46.2343
   -32.8132 -32.8132 -32.7957 -32.7957 -32.6489 -32.6489 -32.6325 -32.6325
    -6.0647  -6.0647  -5.6247  -5.6247  -5.3888  -5.3888  -5.2899  -5.2899
     5.5779   5.5779   5.7416   5.7416   6.1385   6.1385   6.6223   6.6223
     7.1421   7.1421   7.2273   7.2273   7.9065   7.9065   8.5855   8.5855
     8.8561   8.8561   9.4500   9.4500   9.6520   9.6520  10.1303  10.1303
    11.8224  11.8224  12.1072  12.1072  12.2346  12.2346  13.1406  13.1406
    13.8340  13.8340  14.2511  14.2511  15.6671  15.6671  15.8234  15.8234
    16.9818  16.9818  17.8456  17.8456  21.4970  21.4970

     occupation numbers 
     1.0000   1.0000   1.0000   1.0000   1.0000   1.0000   1.0000   1.0000
     1.0000   1.0000   1.0000   1.0000   1.0000   1.0000   1.0000   1.0000
     1.0000   1.0000   1.0000   1.0000   1.0000   1.0000   1.0000   1.0000
     1.0000   1.0000   1.0000   1.0000   1.0000   1.0000   1.0000   1.0000
     1.0000   1.0000   1.0000   1.0000   1.0000   1.0000   1.0000   1.0000
     1.0000   1.0000   1.0000   1.0000   1.0000   1.0000   1.0000   1.0000
     1.0000   1.0000   1.0000   1.0000   1.0000   1.0000   1.0000   1.0000
     1.0046   1.0046  -0.0000  -0.0000  -0.0000  -0.0000  -0.0000  -0.0000
    -0.0000  -0.0000  -0.0000  -0.0000  -0.0000  -0.0000

          k = 0.0000 0.2000 0.6476 (  5374 PWs)   bands (ev):

   -79.3871 -79.3871 -79.3870 -79.3870 -46.2387 -46.2387 -46.2370 -46.2370
   -32.8233 -32.8233 -32.8051 -32.8051 -32.6479 -32.6479 -32.6352 -32.6352
    -5.8396  -5.8396  -5.7073  -5.7073  -5.4085  -5.4085  -5.2954  -5.2954
     5.6849   5.6849   5.8169   5.8169   6.0899   6.0899   6.3675   6.3675
     7.4421   7.4421   7.5613   7.5613   8.1313   8.1313   8.3954   8.3954
     8.7068   8.7068   9.2924   9.2924   9.7088   9.7088   9.7490   9.7490
    11.8556  11.8556  11.9659  11.9659  12.4110  12.4110  12.8786  12.8786
    14.0369  14.0369  14.3576  14.3576  15.4767  15.4767  15.5858  15.5858
    17.2472  17.2472  17.5757  17.5757  22.5056  22.5056

     occupation numbers 
     1.0000   1.0000   1.0000   1.0000   1.0000   1.0000   1.0000   1.0000
     1.0000   1.0000   1.0000   1.0000   1.0000   1.0000   1.0000   1.0000
     1.0000   1.0000   1.0000   1.0000   1.0000   1.0000   1.0000   1.0000
     1.0000   1.0000   1.0000   1.0000   1.0000   1.0000   1.0000   1.0000
     1.0000   1.0000   1.0000   1.0000   1.0000   1.0000   1.0000   1.0000
     1.0000   1.0000   1.0000   1.0000   1.0000   1.0000   1.0000   1.0000
     1.0000   1.0000   1.0000   1.0000   1.0000   1.0000   1.0000   1.0000
    -0.0053  -0.0053  -0.0000  -0.0000  -0.0000  -0.0000  -0.0000  -0.0000
    -0.0000  -0.0000  -0.0000  -0.0000  -0.0000  -0.0000

          k = 0.0000 0.4000 0.0000 (  5370 PWs)   bands (ev):

   -79.3895 -79.3895 -79.3891 -79.3891 -46.2286 -46.2286 -46.2253 -46.2253
   -32.7628 -32.7628 -32.7588 -32.7588 -32.6280 -32.6280 -32.6242 -32.6242
    -6.5208  -6.5208  -6.0576  -6.0576  -5.2978  -5.2978  -5.1645  -5.1645
     5.4196   5.4196   5.4783   5.4783   6.1982   6.1982   6.2331   6.2331
     7.1981   7.1981   7.5496   7.5496   7.5832   7.5832   8.5285   8.5285
     8.6657   8.6657   9.0085   9.0085  10.6804  10.6804  11.0433  11.0433
    12.0130  12.0130  12.1080  12.1080  12.3591  12.3591  12.5072  12.5072
    13.2110  13.2110  14.0512  14.0512  16.6454  16.6454  17.3004  17.3004
    17.4775  17.4775  18.1021  18.1021  20.0248  20.0248

     occupation numbers 
     1.0000   1.0000   1.0000   1.0000   1.0000   1.0000   1.0000   1.0000
     1.0000   1.0000   1.0000   1.0000   1.0000   1.0000   1.0000   1.0000
     1.0000   1.0000   1.0000   1.0000   1.0000   1.0000   1.0000   1.0000
     1.0000   1.0000   1.0000   1.0000   1.0000   1.0000   1.0000   1.0000
     1.0000   1.0000   1.0000   1.0000   1.0000   1.0000   1.0000   1.0000
     1.0000   1.0000   1.0000   1.0000   1.0000   1.0000   1.0000   1.0000
     1.0000   1.0000   1.0000   1.0000   1.0000   1.0000   1.0000   1.0000
     1.0000   1.0000  -0.0024  -0.0024  -0.0000  -0.0000  -0.0000  -0.0000
    -0.0000  -0.0000  -0.0000  -0.0000  -0.0000  -0.0000

          k = 0.0000 0.4000 0.1295 (  5374 PWs)   bands (ev):

   -79.3893 -79.3893 -79.3889 -79.3889 -46.2294 -46.2294 -46.2262 -46.2262
   -32.7688 -32.7688 -32.7592 -32.7592 -32.6323 -32.6323 -32.6248 -32.6248
    -6.4569  -6.4569  -5.9997  -5.9997  -5.3333  -5.3333  -5.1973  -5.1973
     5.4887   5.4887   5.5740   5.5740   6.1878   6.1878   6.2282   6.2282
     7.2907   7.2907   7.6185   7.6185   7.7322   7.7322   8.2365   8.2365
     8.3398   8.3398   9.0127   9.0127  10.6999  10.6999  11.0551  11.0551
    11.9560  11.9560  12.0466  12.0466  12.5373  12.5373  12.6758  12.6758
    13.2454  13.2454  14.0184  14.0184  16.6155  16.6155  17.0177  17.0177
    17.2628  17.2628  18.1098  18.1098  20.2761  20.2761

     occupation numbers 
     1.0000   1.0000   1.0000   1.0000   1.0000   1.0000   1.0000   1.0000
     1.0000   1.0000   1.0000   1.0000   1.0000   1.0000   1.0000   1.0000
     1.0000   1.0000   1.0000   1.0000   1.0000   1.0000   1.0000   1.0000
     1.0000   1.0000   1.0000   1.0000   1.0000   1.0000   1.0000   1.0000
     1.0000   1.0000   1.0000   1.0000   1.0000   1.0000   1.0000   1.0000
     1.0000   1.0000   1.0000   1.0000   1.0000   1.0000   1.0000   1.0000
     1.0000   1.0000   1.0000   1.0000   1.0000   1.0000   1.0000   1.0000
     1.0000   1.0000  -0.0127  -0.0127  -0.0000  -0.0000  -0.0000  -0.0000
    -0.0000  -0.0000  -0.0000  -0.0000  -0.0000  -0.0000

          k = 0.0000 0.4000 0.2590 (  5381 PWs)   bands (ev):

   -79.3888 -79.3888 -79.3884 -79.3884 -46.2317 -46.2317 -46.2287 -46.2287
   -32.7825 -32.7825 -32.7650 -32.7650 -32.6405 -32.6405 -32.6274 -32.6274
    -6.2845  -6.2845  -5.8470  -5.8470  -5.4248  -5.4248  -5.2778  -5.2778
     5.6590   5.6590   5.7789   5.7789   6.2511   6.2511   6.3495   6.3495
     7.1270   7.1270   7.4651   7.4651   7.9143   7.9143   7.9607   7.9607
     8.1878   8.1878   9.1064   9.1064  10.4558  10.4558  10.8457  10.8457
    11.9485  11.9485  12.2414  12.2414  12.6279  12.6279  12.8649  12.8649
    13.3800  13.3800  13.9882  13.9882  16.2393  16.2393  16.4217  16.4217
    17.1937  17.1937  18.1304  18.1304  20.8326  20.8326

     occupation numbers 
     1.0000   1.0000   1.0000   1.0000   1.0000   1.0000   1.0000   1.0000
     1.0000   1.0000   1.0000   1.0000   1.0000   1.0000   1.0000   1.0000
     1.0000   1.0000   1.0000   1.0000   1.0000   1.0000   1.0000   1.0000
     1.0000   1.0000   1.0000   1.0000   1.0000   1.0000   1.0000   1.0000
     1.0000   1.0000   1.0000   1.0000   1.0000   1.0000   1.0000   1.0000
     1.0000   1.0000   1.0000   1.0000   1.0000   1.0000   1.0000   1.0000
     1.0000   1.0000   1.0000   1.0000   1.0000   1.0000   1.0000   1.0000
     1.0000   1.0000  -0.0317  -0.0317  -0.0000  -0.0000  -0.0000  -0.0000
    -0.0000  -0.0000  -0.0000  -0.0000  -0.0000  -0.0000

          k = 0.0000 0.4000 0.3886 (  5369 PWs)   bands (ev):

   -79.3881 -79.3881 -79.3878 -79.3878 -46.2346 -46.2346 -46.2320 -46.2320
   -32.8007 -32.8007 -32.7768 -32.7768 -32.6472 -32.6472 -32.6300 -32.6300
    -6.0640  -6.0640  -5.6858  -5.6858  -5.5116  -5.5116  -5.3496  -5.3496
     5.8188   5.8188   5.9158   5.9158   6.3874   6.3874   6.5800   6.5800
     6.7176   6.7176   6.8771   6.8771   8.0453   8.0453   8.3393   8.3393
     8.5805   8.5805   9.1716   9.1716  10.0857  10.0857  10.6737  10.6737
    11.6550  11.6550  12.2674  12.2674  12.5546  12.5546  12.8543  12.8543
    13.6281  13.6281  14.1082  14.1082  15.6541  15.6541  15.8297  15.8297
    17.4690  17.4690  18.1868  18.1868  21.5050  21.5050

     occupation numbers 
     1.0000   1.0000   1.0000   1.0000   1.0000   1.0000   1.0000   1.0000
     1.0000   1.0000   1.0000   1.0000   1.0000   1.0000   1.0000   1.0000
     1.0000   1.0000   1.0000   1.0000   1.0000   1.0000   1.0000   1.0000
     1.0000   1.0000   1.0000   1.0000   1.0000   1.0000   1.0000   1.0000
     1.0000   1.0000   1.0000   1.0000   1.0000   1.0000   1.0000   1.0000
     1.0000   1.0000   1.0000   1.0000   1.0000   1.0000   1.0000   1.0000
     1.0000   1.0000   1.0000   1.0000   1.0000   1.0000   1.0000   1.0000
     1.0000   1.0000  -0.0000  -0.0000  -0.0000  -0.0000  -0.0000  -0.0000
    -0.0000  -0.0000  -0.0000  -0.0000  -0.0000  -0.0000

          k = 0.0000 0.4000 0.5181 (  5369 PWs)   bands (ev):

   -79.3875 -79.3875 -79.3873 -79.3873 -46.2373 -46.2373 -46.2351 -46.2351
   -32.8183 -32.8183 -32.7905 -32.7905 -32.6503 -32.6503 -32.6315 -32.6315
    -5.8973  -5.8973  -5.7152  -5.7152  -5.4560  -5.4560  -5.3129  -5.3129
     5.7735   5.7735   5.8535   5.8535   6.0691   6.0691   6.2668   6.2668
     7.0661   7.0661   7.4324   7.4324   8.1552   8.1552   8.7034   8.7034
     8.9138   8.9138   9.0700   9.0700   9.8413   9.8413  10.7042  10.7042
    11.2499  11.2499  11.9987  11.9987  12.2414  12.2414  12.5917  12.5917
    13.9383  13.9383  14.3352  14.3352  15.2336  15.2336  15.3912  15.3912
    17.8107  17.8107  18.2601  18.2601  22.1991  22.1991

     occupation numbers 
     1.0000   1.0000   1.0000   1.0000   1.0000   1.0000   1.0000   1.0000
     1.0000   1.0000   1.0000   1.0000   1.0000   1.0000   1.0000   1.0000
     1.0000   1.0000   1.0000   1.0000   1.0000   1.0000   1.0000   1.0000
     1.0000   1.0000   1.0000   1.0000   1.0000   1.0000   1.0000   1.0000
     1.0000   1.0000   1.0000   1.0000   1.0000   1.0000   1.0000   1.0000
     1.0000   1.0000   1.0000   1.0000   1.0000   1.0000   1.0000   1.0000
     1.0000   1.0000   1.0000   1.0000   1.0000   1.0000   1.0000   1.0000
     0.0516   0.0516  -0.0000  -0.0000  -0.0000  -0.0000  -0.0000  -0.0000
    -0.0000  -0.0000  -0.0000  -0.0000  -0.0000  -0.0000

          k = 0.0000 0.4000 0.6476 (  5368 PWs)   bands (ev):

   -79.3871 -79.3871 -79.3870 -79.3870 -46.2388 -46.2388 -46.2369 -46.2369
   -32.8291 -32.8291 -32.7997 -32.7997 -32.6511 -32.6511 -32.6319 -32.6319
    -5.8332  -5.8332  -5.7885  -5.7885  -5.3841  -5.3841  -5.2271  -5.2271
     5.5249   5.5249   5.5831   5.5831   6.1538   6.1538   6.2134   6.2134
     7.4895   7.4895   7.9840   7.9840   8.2010   8.2010   8.6527   8.6527
     8.9920   8.9920   9.1107   9.1107   9.9725   9.9725  10.4301  10.4301
    11.2863  11.2863  11.6296  11.6296  11.9454  11.9454  12.3126  12.3126
    14.1248  14.1248  14.4793  14.4793  15.0733  15.0733  15.1521  15.1521
    18.0626  18.0626  18.2860  18.2860  22.8422  22.8422

     occupation numbers 
     1.0000   1.0000   1.0000   1.0000   1.0000   1.0000   1.0000   1.0000
     1.0000   1.0000   1.0000   1.0000   1.0000   1.0000   1.0000   1.0000
     1.0000   1.0000   1.0000   1.0000   1.0000   1.0000   1.0000   1.0000
     1.0000   1.0000   1.0000   1.0000   1.0000   1.0000   1.0000   1.0000
     1.0000   1.0000   1.0000   1.0000   1.0000   1.0000   1.0000   1.0000
     1.0000   1.0000   1.0000   1.0000   1.0000   1.0000   1.0000   1.0000
     1.0000   1.0000   1.0000   1.0000   1.0000   1.0000   1.0000   1.0000
    -0.0000  -0.0000  -0.0000  -0.0000  -0.0000  -0.0000  -0.0000  -0.0000
    -0.0000  -0.0000  -0.0000  -0.0000  -0.0000  -0.0000

          k = 0.2000 0.2000 0.0000 (  5377 PWs)   bands (ev):

   -79.3897 -79.3897 -79.3889 -79.3889 -46.2305 -46.2305 -46.2234 -46.2234
   -32.7666 -32.7666 -32.7578 -32.7578 -32.6287 -32.6287 -32.6203 -32.6203
    -6.8096  -6.8096  -5.9240  -5.9240  -5.2585  -5.2585  -4.9298  -4.9298
     4.3997   4.3997   5.4719   5.4719   6.0599   6.0599   6.2323   6.2323
     6.7417   6.7417   7.5135   7.5135   8.6094   8.6094   8.9646   8.9646
     9.7352   9.7352  10.0211  10.0211  10.2566  10.2566  11.1493  11.1493
    11.2981  11.2981  11.6591  11.6591  12.1251  12.1251  12.4129  12.4129
    12.8419  12.8419  14.6062  14.6062  15.4301  15.4301  17.3636  17.3636
    17.8764  17.8764  18.7049  18.7049  19.2638  19.2638

     occupation numbers 
     1.0000   1.0000   1.0000   1.0000   1.0000   1.0000   1.0000   1.0000
     1.0000   1.0000   1.0000   1.0000   1.0000   1.0000   1.0000   1.0000
     1.0000   1.0000   1.0000   1.0000   1.0000   1.0000   1.0000   1.0000
     1.0000   1.0000   1.0000   1.0000   1.0000   1.0000   1.0000   1.0000
     1.0000   1.0000   1.0000   1.0000   1.0000   1.0000   1.0000   1.0000
     1.0000   1.0000   1.0000   1.0000   1.0000   1.0000   1.0000   1.0000
     1.0000   1.0000   1.0000   1.0000   1.0000   1.0000   1.0000   1.0000
     1.0000   1.0000  -0.0000  -0.0000  -0.0000  -0.0000  -0.0000  -0.0000
    -0.0000  -0.0000  -0.0000  -0.0000  -0.0000  -0.0000

          k = 0.2000 0.2000 0.1295 (  5367 PWs)   bands (ev):

   -79.3895 -79.3895 -79.3887 -79.3887 -46.2312 -46.2312 -46.2244 -46.2244
   -32.7700 -32.7700 -32.7606 -32.7606 -32.6324 -32.6324 -32.6218 -32.6218
    -6.7396  -6.7396  -5.8727  -5.8727  -5.2935  -5.2935  -4.9719  -4.9719
     4.4917   4.4917   5.5482   5.5482   6.0732   6.0732   6.2450   6.2450
     6.8605   6.8605   7.6516   7.6516   8.2004   8.2004   9.0202   9.0202
     9.2502   9.2502  10.1055  10.1055  10.2815  10.2815  10.9294  10.9294
    11.4632  11.4632  11.7807  11.7807  12.1842  12.1842  12.5662  12.5662
    12.9534  12.9534  14.5362  14.5362  15.5763  15.5763  17.0463  17.0463
    17.6666  17.6666  18.6514  18.6514  19.5008  19.5008

     occupation numbers 
     1.0000   1.0000   1.0000   1.0000   1.0000   1.0000   1.0000   1.0000
     1.0000   1.0000   1.0000   1.0000   1.0000   1.0000   1.0000   1.0000
     1.0000   1.0000   1.0000   1.0000   1.0000   1.0000   1.0000   1.0000
     1.0000   1.0000   1.0000   1.0000   1.0000   1.0000   1.0000   1.0000
     1.0000   1.0000   1.0000   1.0000   1.0000   1.0000   1.0000   1.0000
     1.0000   1.0000   1.0000   1.0000   1.0000   1.0000   1.0000   1.0000
     1.0000   1.0000   1.0000   1.0000   1.0000   1.0000   1.0000   1.0000
     1.0000   1.0000  -0.0000  -0.0000  -0.0000  -0.0000  -0.0000  -0.0000
    -0.0000  -0.0000  -0.0000  -0.0000  -0.0000  -0.0000

          k = 0.2000 0.2000 0.2590 (  5378 PWs)   bands (ev):

   -79.3890 -79.3890 -79.3883 -79.3883 -46.2332 -46.2332 -46.2272 -46.2272
   -32.7809 -32.7809 -32.7684 -32.7684 -32.6402 -32.6402 -32.6255 -32.6255
    -6.5457  -6.5457  -5.7388  -5.7388  -5.3835  -5.3835  -5.0822  -5.0822
     4.7520   4.7520   5.7199   5.7199   6.1383   6.1383   6.3839   6.3839
     7.1645   7.1645   7.3745   7.3745   8.0225   8.0225   8.4467   8.4467
     9.1735   9.1735   9.7207   9.7207  10.1704  10.1704  10.9534  10.9534
    11.5233  11.5233  11.8728  11.8728  12.4001  12.4001  12.8233  12.8233
    13.2405  13.2405  14.3566  14.3566  15.9101  15.9101  16.4332  16.4332
    17.2064  17.2064  18.4808  18.4808  20.0650  20.0650

     occupation numbers 
     1.0000   1.0000   1.0000   1.0000   1.0000   1.0000   1.0000   1.0000
     1.0000   1.0000   1.0000   1.0000   1.0000   1.0000   1.0000   1.0000
     1.0000   1.0000   1.0000   1.0000   1.0000   1.0000   1.0000   1.0000
     1.0000   1.0000   1.0000   1.0000   1.0000   1.0000   1.0000   1.0000
     1.0000   1.0000   1.0000   1.0000   1.0000   1.0000   1.0000   1.0000
     1.0000   1.0000   1.0000   1.0000   1.0000   1.0000   1.0000   1.0000
     1.0000   1.0000   1.0000   1.0000   1.0000   1.0000   1.0000   1.0000
     1.0000   1.0000  -0.0000  -0.0000  -0.0000  -0.0000  -0.0000  -0.0000
    -0.0000  -0.0000  -0.0000  -0.0000  -0.0000  -0.0000

          k = 0.2000 0.2000 0.3886 (  5371 PWs)   bands (ev):

   -79.3883 -79.3883 -79.3877 -79.3877 -46.2357 -46.2357 -46.2310 -46.2310
   -32.7977 -32.7977 -32.7807 -32.7807 -32.6466 -32.6466 -32.6296 -32.6296
    -6.2755  -6.2755  -5.6016  -5.6016  -5.4665  -5.4665  -5.2187  -5.2187
     5.1308   5.1308   5.8736   5.8736   6.2587   6.2587   6.5636   6.5636
     6.8076   6.8076   7.5885   7.5885   7.6816   7.6816   8.3980   8.3980
     9.0307   9.0307   9.5639   9.5639   9.8272   9.8272  10.9746  10.9746
    11.3476  11.3476  12.0093  12.0093  12.5467  12.5467  13.0159  13.0159
    13.4893  13.4893  14.2198  14.2198  15.6959  15.6959  16.3705  16.3705
    16.8055  16.8055  18.2363  18.2363  20.8382  20.8382

     occupation numbers 
     1.0000   1.0000   1.0000   1.0000   1.0000   1.0000   1.0000   1.0000
     1.0000   1.0000   1.0000   1.0000   1.0000   1.0000   1.0000   1.0000
     1.0000   1.0000   1.0000   1.0000   1.0000   1.0000   1.0000   1.0000
     1.0000   1.0000   1.0000   1.0000   1.0000   1.0000   1.0000   1.0000
     1.0000   1.0000   1.0000   1.0000   1.0000   1.0000   1.0000   1.0000
     1.0000   1.0000   1.0000   1.0000   1.0000   1.0000   1.0000   1.0000
     1.0000   1.0000   1.0000   1.0000   1.0000   1.0000   1.0000   1.0000
     1.0000   1.0000  -0.0000  -0.0000  -0.0000  -0.0000  -0.0000  -0.0000
    -0.0000  -0.0000  -0.0000  -0.0000  -0.0000  -0.0000

          k = 0.2000 0.2000 0.5181 (  5355 PWs)   bands (ev):

   -79.3876 -79.3876 -79.3872 -79.3872 -46.2378 -46.2378 -46.2346 -46.2346
   -32.8144 -32.8144 -32.7946 -32.7946 -32.6489 -32.6489 -32.6327 -32.6327
    -6.0067  -6.0067  -5.6395  -5.6395  -5.4179  -5.4179  -5.3035  -5.3035
     5.5366   5.5366   5.8775   5.8775   6.0754   6.0754   6.4603   6.4603
     6.8843   6.8843   7.5122   7.5122   8.1089   8.1089   8.5810   8.5810
     8.7550   8.7550   9.4212   9.4212   9.7141   9.7141  10.4640  10.4640
    11.6077  11.6077  12.0215  12.0215  12.3166  12.3166  13.2368  13.2368
    13.4371  13.4371  14.3615  14.3615  15.2645  15.2645  16.2616  16.2616
    16.8355  16.8355  18.0598  18.0598  21.7113  21.7113

     occupation numbers 
     1.0000   1.0000   1.0000   1.0000   1.0000   1.0000   1.0000   1.0000
     1.0000   1.0000   1.0000   1.0000   1.0000   1.0000   1.0000   1.0000
     1.0000   1.0000   1.0000   1.0000   1.0000   1.0000   1.0000   1.0000
     1.0000   1.0000   1.0000   1.0000   1.0000   1.0000   1.0000   1.0000
     1.0000   1.0000   1.0000   1.0000   1.0000   1.0000   1.0000   1.0000
     1.0000   1.0000   1.0000   1.0000   1.0000   1.0000   1.0000   1.0000
     1.0000   1.0000   1.0000   1.0000   1.0000   1.0000   1.0000   1.0000
     1.0000   1.0000  -0.0000  -0.0000  -0.0000  -0.0000  -0.0000  -0.0000
    -0.0000  -0.0000  -0.0000  -0.0000  -0.0000  -0.0000

          k = 0.2000 0.2000 0.6476 (  5363 PWs)   bands (ev):

   -79.3871 -79.3871 -79.3870 -79.3870 -46.2387 -46.2387 -46.2371 -46.2371
   -32.8247 -32.8247 -32.8038 -32.8038 -32.6486 -32.6486 -32.6346 -32.6346
    -5.8434  -5.8434  -5.6806  -5.6806  -5.4503  -5.4503  -5.2671  -5.2671
     5.5846   5.5846   5.8736   5.8736   6.0892   6.0892   6.4856   6.4856
     6.6466   6.6466   7.9926   7.9926   8.2907   8.2907   8.7578   8.7578
     8.8208   8.8208   9.1085   9.1085   9.5860   9.5860  10.1043  10.1043
    11.7822  11.7822  11.9265  11.9265  12.1895  12.1895  13.0129  13.0129
    13.6016  13.6016  14.5224  14.5224  15.0420  15.0420  16.1224  16.1224
    16.8878  16.8878  18.0202  18.0202  22.5803  22.5803

     occupation numbers 
     1.0000   1.0000   1.0000   1.0000   1.0000   1.0000   1.0000   1.0000
     1.0000   1.0000   1.0000   1.0000   1.0000   1.0000   1.0000   1.0000
     1.0000   1.0000   1.0000   1.0000   1.0000   1.0000   1.0000   1.0000
     1.0000   1.0000   1.0000   1.0000   1.0000   1.0000   1.0000   1.0000
     1.0000   1.0000   1.0000   1.0000   1.0000   1.0000   1.0000   1.0000
     1.0000   1.0000   1.0000   1.0000   1.0000   1.0000   1.0000   1.0000
     1.0000   1.0000   1.0000   1.0000   1.0000   1.0000   1.0000   1.0000
     1.0000   1.0000  -0.0000  -0.0000  -0.0000  -0.0000  -0.0000  -0.0000
    -0.0000  -0.0000  -0.0000  -0.0000  -0.0000  -0.0000

          k = 0.2000 0.4000 0.0000 (  5398 PWs)   bands (ev):

   -79.3895 -79.3895 -79.3891 -79.3891 -46.2283 -46.2283 -46.2256 -46.2256
   -32.7633 -32.7633 -32.7597 -32.7597 -32.6272 -32.6272 -32.6237 -32.6237
    -6.5126  -6.5126  -6.1435  -6.1435  -5.2629  -5.2629  -5.0714  -5.0714
     4.7199   4.7199   5.4462   5.4462   6.0940   6.0940   6.2004   6.2004
     7.3632   7.3632   7.6251   7.6251   8.3855   8.3855   8.7589   8.7589
     9.1135   9.1135   9.3000   9.3000  10.2021  10.2021  10.7540  10.7540
    11.6623  11.6623  11.9581  11.9581  12.1498  12.1498  12.4564  12.4564
    13.4630  13.4630  14.1197  14.1197  16.3053  16.3053  17.3699  17.3699
    17.5077  17.5077  17.8699  17.8699  20.6011  20.6011

     occupation numbers 
     1.0000   1.0000   1.0000   1.0000   1.0000   1.0000   1.0000   1.0000
     1.0000   1.0000   1.0000   1.0000   1.0000   1.0000   1.0000   1.0000
     1.0000   1.0000   1.0000   1.0000   1.0000   1.0000   1.0000   1.0000
     1.0000   1.0000   1.0000   1.0000   1.0000   1.0000   1.0000   1.0000
     1.0000   1.0000   1.0000   1.0000   1.0000   1.0000   1.0000   1.0000
     1.0000   1.0000   1.0000   1.0000   1.0000   1.0000   1.0000   1.0000
     1.0000   1.0000   1.0000   1.0000   1.0000   1.0000   1.0000   1.0000
     1.0000   1.0000  -0.0000  -0.0000  -0.0000  -0.0000  -0.0000  -0.0000
    -0.0000  -0.0000  -0.0000  -0.0000  -0.0000  -0.0000

          k = 0.2000 0.4000 0.1295 (  5391 PWs)   bands (ev):

   -79.3893 -79.3893 -79.3890 -79.3890 -46.2291 -46.2291 -46.2265 -46.2265
   -32.7687 -32.7687 -32.7607 -32.7607 -32.6311 -32.6311 -32.6248 -32.6248
    -6.4491  -6.4491  -6.0861  -6.0861  -5.2967  -5.2967  -5.1081  -5.1081
     4.8028   4.8028   5.5329   5.5329   6.0982   6.0982   6.1807   6.1807
     7.4746   7.4746   7.7682   7.7682   8.1938   8.1938   8.5641   8.5641
     8.9273   8.9273   9.2360   9.2360  10.2746  10.2746  10.6509  10.6509
    11.7628  11.7628  11.9607  11.9607  12.2870  12.2870  12.6361  12.6361
    13.4433  13.4433  14.0591  14.0591  16.3728  16.3728  17.0518  17.0518
    17.4256  17.4256  17.8182  17.8182  20.7916  20.7916

     occupation numbers 
     1.0000   1.0000   1.0000   1.0000   1.0000   1.0000   1.0000   1.0000
     1.0000   1.0000   1.0000   1.0000   1.0000   1.0000   1.0000   1.0000
     1.0000   1.0000   1.0000   1.0000   1.0000   1.0000   1.0000   1.0000
     1.0000   1.0000   1.0000   1.0000   1.0000   1.0000   1.0000   1.0000
     1.0000   1.0000   1.0000   1.0000   1.0000   1.0000   1.0000   1.0000
     1.0000   1.0000   1.0000   1.0000   1.0000   1.0000   1.0000   1.0000
     1.0000   1.0000   1.0000   1.0000   1.0000   1.0000   1.0000   1.0000
     1.0000   1.0000  -0.0015  -0.0015  -0.0000  -0.0000  -0.0000  -0.0000
    -0.0000  -0.0000  -0.0000  -0.0000  -0.0000  -0.0000

          k = 0.2000 0.4000 0.2590 (  5381 PWs)   bands (ev):

   -79.3888 -79.3888 -79.3885 -79.3885 -46.2314 -46.2314 -46.2290 -46.2290
   -32.7815 -32.7815 -32.7670 -32.7670 -32.6389 -32.6389 -32.6281 -32.6281
    -6.2768  -6.2768  -5.9348  -5.9348  -5.3820  -5.3820  -5.2021  -5.2021
     5.0310   5.0310   5.7282   5.7282   6.1417   6.1417   6.2390   6.2390
     7.3830   7.3830   7.7346   7.7346   8.0671   8.0671   8.2605   8.2605
     8.8328   8.8328   9.2672   9.2672  10.1118  10.1118  10.4845  10.4845
    11.9394  11.9394  12.1136  12.1136  12.4773  12.4773  12.8145  12.8145
    13.4631  13.4631  13.9366  13.9366  16.2847  16.2847  16.5941  16.5941
    17.1457  17.1457  17.8540  17.8540  21.2243  21.2243

     occupation numbers 
     1.0000   1.0000   1.0000   1.0000   1.0000   1.0000   1.0000   1.0000
     1.0000   1.0000   1.0000   1.0000   1.0000   1.0000   1.0000   1.0000
     1.0000   1.0000   1.0000   1.0000   1.0000   1.0000   1.0000   1.0000
     1.0000   1.0000   1.0000   1.0000   1.0000   1.0000   1.0000   1.0000
     1.0000   1.0000   1.0000   1.0000   1.0000   1.0000   1.0000   1.0000
     1.0000   1.0000   1.0000   1.0000   1.0000   1.0000   1.0000   1.0000
     1.0000   1.0000   1.0000   1.0000   1.0000   1.0000   1.0000   1.0000
     1.0000   1.0000   0.0613   0.0613  -0.0000  -0.0000  -0.0000  -0.0000
    -0.0000  -0.0000  -0.0000  -0.0000  -0.0000  -0.0000

          k = 0.2000 0.4000 0.3886 (  5366 PWs)   bands (ev):

   -79.3881 -79.3881 -79.3879 -79.3879 -46.2344 -46.2344 -46.2323 -46.2323
   -32.7990 -32.7990 -32.7791 -32.7791 -32.6455 -32.6455 -32.6314 -32.6314
    -6.0501  -6.0501  -5.7638  -5.7638  -5.4638  -5.4638  -5.3068  -5.3068
     5.3379   5.3379   5.8539   5.8539   6.2312   6.2312   6.4469   6.4469
     6.7838   6.7838   7.3559   7.3559   8.2234   8.2234   8.5156   8.5156
     9.0085   9.0085   9.1402   9.1402   9.9487   9.9487  10.4930  10.4930
    11.8085  11.8085  12.1818  12.1818  12.5108  12.5108  12.8064  12.8064
    13.5467  13.5467  13.9762  13.9762  15.7335  15.7335  16.2019  16.2019
    17.2646  17.2646  17.9496  17.9496  21.7576  21.7576

     occupation numbers 
     1.0000   1.0000   1.0000   1.0000   1.0000   1.0000   1.0000   1.0000
     1.0000   1.0000   1.0000   1.0000   1.0000   1.0000   1.0000   1.0000
     1.0000   1.0000   1.0000   1.0000   1.0000   1.0000   1.0000   1.0000
     1.0000   1.0000   1.0000   1.0000   1.0000   1.0000   1.0000   1.0000
     1.0000   1.0000   1.0000   1.0000   1.0000   1.0000   1.0000   1.0000
     1.0000   1.0000   1.0000   1.0000   1.0000   1.0000   1.0000   1.0000
     1.0000   1.0000   1.0000   1.0000   1.0000   1.0000   1.0000   1.0000
     1.0000   1.0000  -0.0355  -0.0355  -0.0000  -0.0000  -0.0000  -0.0000
    -0.0000  -0.0000  -0.0000  -0.0000  -0.0000  -0.0000

          k = 0.2000 0.4000 0.5181 (  5370 PWs)   bands (ev):

   -79.3874 -79.3874 -79.3873 -79.3873 -46.2371 -46.2371 -46.2353 -46.2353
   -32.8161 -32.8161 -32.7930 -32.7930 -32.6488 -32.6488 -32.6331 -32.6331
    -5.8635  -5.8635  -5.7146  -5.7146  -5.4577  -5.4577  -5.3312  -5.3312
     5.6075   5.6075   5.7736   5.7736   6.1462   6.1462   6.2655   6.2655
     6.8925   6.8925   7.3619   7.3619   8.3606   8.3606   8.6041   8.6041
     8.9746   8.9746   9.3187   9.3187   9.9308   9.9308  10.6826  10.6826
    11.4680  11.4680  12.0595  12.0595  12.2598  12.2598  12.6283  12.6283
    13.6856  13.6856  14.2061  14.2061  15.3000  15.3000  15.8055  15.8055
    17.4946  17.4946  18.0654  18.0654  22.3219  22.3219

     occupation numbers 
     1.0000   1.0000   1.0000   1.0000   1.0000   1.0000   1.0000   1.0000
     1.0000   1.0000   1.0000   1.0000   1.0000   1.0000   1.0000   1.0000
     1.0000   1.0000   1.0000   1.0000   1.0000   1.0000   1.0000   1.0000
     1.0000   1.0000   1.0000   1.0000   1.0000   1.0000   1.0000   1.0000
     1.0000   1.0000   1.0000   1.0000   1.0000   1.0000   1.0000   1.0000
     1.0000   1.0000   1.0000   1.0000   1.0000   1.0000   1.0000   1.0000
     1.0000   1.0000   1.0000   1.0000   1.0000   1.0000   1.0000   1.0000
     1.0001   1.0001  -0.0000  -0.0000  -0.0000  -0.0000  -0.0000  -0.0000
    -0.0000  -0.0000  -0.0000  -0.0000  -0.0000  -0.0000

          k = 0.2000 0.4000 0.6476 (  5355 PWs)   bands (ev):

   -79.3870 -79.3870 -79.3870 -79.3870 -46.2387 -46.2387 -46.2371 -46.2371
   -32.8266 -32.8266 -32.8021 -32.8021 -32.6497 -32.6497 -32.6337 -32.6337
    -5.8081  -5.8081  -5.7248  -5.7248  -5.4286  -5.4286  -5.2645  -5.2645
     5.5248   5.5248   5.7390   5.7390   6.0665   6.0665   6.2034   6.2034
     7.0565   7.0565   7.7532   7.7532   8.2772   8.2772   8.4530   8.4530
     9.1221   9.1221   9.5117   9.5117  10.0258  10.0258  10.6890  10.6890
    11.3186  11.3186  11.8857  11.8857  11.9947  11.9947  12.4146  12.4146
    13.8186  13.8186  14.3668  14.3668  15.0893  15.0893  15.5861  15.5861
    17.6150  17.6150  18.1588  18.1588  22.8712  22.8712

     occupation numbers 
     1.0000   1.0000   1.0000   1.0000   1.0000   1.0000   1.0000   1.0000
     1.0000   1.0000   1.0000   1.0000   1.0000   1.0000   1.0000   1.0000
     1.0000   1.0000   1.0000   1.0000   1.0000   1.0000   1.0000   1.0000
     1.0000   1.0000   1.0000   1.0000   1.0000   1.0000   1.0000   1.0000
     1.0000   1.0000   1.0000   1.0000   1.0000   1.0000   1.0000   1.0000
     1.0000   1.0000   1.0000   1.0000   1.0000   1.0000   1.0000   1.0000
     1.0000   1.0000   1.0000   1.0000   1.0000   1.0000   1.0000   1.0000
     1.0322   1.0322  -0.0000  -0.0000  -0.0000  -0.0000  -0.0000  -0.0000
    -0.0000  -0.0000  -0.0000  -0.0000  -0.0000  -0.0000

          k = 0.4000 0.4000 0.0000 (  5386 PWs)   bands (ev):

   -79.3894 -79.3894 -79.3892 -79.3892 -46.2275 -46.2275 -46.2265 -46.2265
   -32.7636 -32.7636 -32.7620 -32.7620 -32.6252 -32.6252 -32.6236 -32.6236
    -6.4551  -6.4551  -6.3183  -6.3183  -5.1172  -5.1172  -5.0175  -5.0175
     4.4031   4.4031   4.7175   4.7175   6.0199   6.0199   6.0707   6.0707
     8.0128   8.0128   8.5155   8.5155   8.7769   8.7769   9.1853   9.1853
     9.4932   9.4932   9.6104   9.6104   9.7955   9.7955  10.4906  10.4906
    11.1510  11.1510  11.5561  11.5561  11.8220  11.8220  12.0480  12.0480
    13.8767  13.8767  14.1117  14.1117  16.1349  16.1349  16.6730  16.6730
    17.7463  17.7463  17.9379  17.9379  21.6437  21.6437

     occupation numbers 
     1.0000   1.0000   1.0000   1.0000   1.0000   1.0000   1.0000   1.0000
     1.0000   1.0000   1.0000   1.0000   1.0000   1.0000   1.0000   1.0000
     1.0000   1.0000   1.0000   1.0000   1.0000   1.0000   1.0000   1.0000
     1.0000   1.0000   1.0000   1.0000   1.0000   1.0000   1.0000   1.0000
     1.0000   1.0000   1.0000   1.0000   1.0000   1.0000   1.0000   1.0000
     1.0000   1.0000   1.0000   1.0000   1.0000   1.0000   1.0000   1.0000
     1.0000   1.0000   1.0000   1.0000   1.0000   1.0000   1.0000   1.0000
     0.6948   0.6948  -0.0000  -0.0000  -0.0000  -0.0000  -0.0000  -0.0000
    -0.0000  -0.0000  -0.0000  -0.0000  -0.0000  -0.0000

          k = 0.4000 0.4000 0.1295 (  5402 PWs)   bands (ev):

   -79.3892 -79.3892 -79.3890 -79.3890 -46.2284 -46.2284 -46.2274 -46.2274
   -32.7679 -32.7679 -32.7638 -32.7638 -32.6286 -32.6286 -32.6255 -32.6255
    -6.3934  -6.3934  -6.2593  -6.2593  -5.1537  -5.1537  -5.0567  -5.0567
     4.4918   4.4918   4.8008   4.8008   6.0195   6.0195   6.0740   6.0740
     8.1117   8.1117   8.5645   8.5645   8.8336   8.8336   8.8938   8.8938
     9.2237   9.2237   9.5486   9.5486   9.7886   9.7886  10.1611  10.1611
    11.3900  11.3900  11.7287  11.7287  12.0276  12.0276  12.2088  12.2088
    13.8046  13.8046  14.0255  14.0255  16.2521  16.2521  16.7262  16.7262
    17.5475  17.5475  17.7442  17.7442  21.7700  21.7701

     occupation numbers 
     1.0000   1.0000   1.0000   1.0000   1.0000   1.0000   1.0000   1.0000
     1.0000   1.0000   1.0000   1.0000   1.0000   1.0000   1.0000   1.0000
     1.0000   1.0000   1.0000   1.0000   1.0000   1.0000   1.0000   1.0000
     1.0000   1.0000   1.0000   1.0000   1.0000   1.0000   1.0000   1.0000
     1.0000   1.0000   1.0000   1.0000   1.0000   1.0000   1.0000   1.0000
     1.0000   1.0000   1.0000   1.0000   1.0000   1.0000   1.0000   1.0000
     1.0000   1.0000   1.0000   1.0000   1.0000   1.0000   1.0000   1.0000
     1.0347   1.0347  -0.0094  -0.0094  -0.0000  -0.0000  -0.0000  -0.0000
    -0.0000  -0.0000  -0.0000  -0.0000  -0.0000  -0.0000

          k = 0.4000 0.4000 0.2590 (  5390 PWs)   bands (ev):

   -79.3887 -79.3887 -79.3886 -79.3886 -46.2307 -46.2307 -46.2298 -46.2298
   -32.7789 -32.7789 -32.7714 -32.7714 -32.6356 -32.6356 -32.6302 -32.6302
    -6.2248  -6.2248  -6.1004  -6.1004  -5.2483  -5.2483  -5.1595  -5.1595
     4.7420   4.7420   5.0284   5.0284   6.0387   6.0387   6.1073   6.1073
     8.0088   8.0088   8.3250   8.3250   8.4521   8.4521   8.9571   8.9571
     9.1256   9.1256   9.5149   9.5149   9.6334   9.6334   9.8367   9.8367
    11.7238  11.7238  12.0336  12.0336  12.3790  12.3790  12.4861  12.4861
    13.6303  13.6303  13.8028  13.8028  16.4564  16.4564  16.7212  16.7212
    17.1917  17.1917  17.4040  17.4040  22.0402  22.0403

     occupation numbers 
     1.0000   1.0000   1.0000   1.0000   1.0000   1.0000   1.0000   1.0000
     1.0000   1.0000   1.0000   1.0000   1.0000   1.0000   1.0000   1.0000
     1.0000   1.0000   1.0000   1.0000   1.0000   1.0000   1.0000   1.0000
     1.0000   1.0000   1.0000   1.0000   1.0000   1.0000   1.0000   1.0000
     1.0000   1.0000   1.0000   1.0000   1.0000   1.0000   1.0000   1.0000
     1.0000   1.0000   1.0000   1.0000   1.0000   1.0000   1.0000   1.0000
     1.0000   1.0000   1.0000   1.0000   1.0000   1.0000   1.0000   1.0000
     1.0000   1.0000   1.0342   1.0342  -0.0000  -0.0000  -0.0000  -0.0000
    -0.0000  -0.0000  -0.0000  -0.0000  -0.0000  -0.0000

          k = 0.4000 0.4000 0.3886 (  5361 PWs)   bands (ev):

   -79.3880 -79.3880 -79.3879 -79.3879 -46.2338 -46.2338 -46.2329 -46.2329
   -32.7948 -32.7948 -32.7844 -32.7844 -32.6418 -32.6418 -32.6346 -32.6346
    -5.9977  -5.9977  -5.8958  -5.8958  -5.3613  -5.3613  -5.2868  -5.2868
     5.1020   5.1020   5.3266   5.3266   6.0984   6.0984   6.1830   6.1830
     7.3505   7.3505   7.6581   7.6581   8.5857   8.5857   8.8904   8.8904
     9.1421   9.1421   9.3542   9.3542   9.7386   9.7386  10.1959  10.1959
    11.9166  11.9166  12.1339  12.1339  12.5156  12.5156  12.7935  12.7935
    13.3836  13.3836  13.6680  13.6680  16.1903  16.1903  16.5642  16.5642
    17.0193  17.0193  17.4185  17.4185  22.3509  22.3509

     occupation numbers 
     1.0000   1.0000   1.0000   1.0000   1.0000   1.0000   1.0000   1.0000
     1.0000   1.0000   1.0000   1.0000   1.0000   1.0000   1.0000   1.0000
     1.0000   1.0000   1.0000   1.0000   1.0000   1.0000   1.0000   1.0000
     1.0000   1.0000   1.0000   1.0000   1.0000   1.0000   1.0000   1.0000
     1.0000   1.0000   1.0000   1.0000   1.0000   1.0000   1.0000   1.0000
     1.0000   1.0000   1.0000   1.0000   1.0000   1.0000   1.0000   1.0000
     1.0000   1.0000   1.0000   1.0000   1.0000   1.0000   1.0000   1.0000
     1.0000   1.0000   1.0000   1.0000  -0.0000  -0.0000  -0.0000  -0.0000
    -0.0000  -0.0000  -0.0000  -0.0000  -0.0000  -0.0000

          k = 0.4000 0.4000 0.5181 (  5354 PWs)   bands (ev):

   -79.3874 -79.3874 -79.3873 -79.3873 -46.2366 -46.2366 -46.2358 -46.2358
   -32.8107 -32.8107 -32.7986 -32.7986 -32.6451 -32.6451 -32.6370 -32.6370
    -5.7902  -5.7902  -5.7316  -5.7316  -5.4472  -5.4472  -5.3745  -5.3745
     5.4749   5.4749   5.5750   5.5750   6.1288   6.1288   6.2456   6.2456
     6.9145   6.9145   7.1823   7.1823   8.4451   8.4451   8.5549   8.5549
     9.2824   9.2824   9.5116   9.5116  10.1578  10.1578  10.5402  10.5402
    11.9208  11.9208  12.0308  12.0308  12.3612  12.3612  12.9329  12.9329
    13.2130  13.2130  13.7924  13.7924  15.7939  15.7939  16.2646  16.2646
    17.0580  17.0580  17.5286  17.5286  22.6691  22.6693

     occupation numbers 
     1.0000   1.0000   1.0000   1.0000   1.0000   1.0000   1.0000   1.0000
     1.0000   1.0000   1.0000   1.0000   1.0000   1.0000   1.0000   1.0000
     1.0000   1.0000   1.0000   1.0000   1.0000   1.0000   1.0000   1.0000
     1.0000   1.0000   1.0000   1.0000   1.0000   1.0000   1.0000   1.0000
     1.0000   1.0000   1.0000   1.0000   1.0000   1.0000   1.0000   1.0000
     1.0000   1.0000   1.0000   1.0000   1.0000   1.0000   1.0000   1.0000
     1.0000   1.0000   1.0000   1.0000   1.0000   1.0000   1.0000   1.0000
     1.0000   1.0000   1.0287   1.0287  -0.0000  -0.0000  -0.0000  -0.0000
    -0.0000  -0.0000  -0.0000  -0.0000  -0.0000  -0.0000

          k = 0.4000 0.4000 0.6476 (  5361 PWs)   bands (ev):

   -79.3870 -79.3870 -79.3870 -79.3870 -46.2383 -46.2383 -46.2375 -46.2375
   -32.8208 -32.8208 -32.8079 -32.8079 -32.6462 -32.6462 -32.6378 -32.6378
    -5.7201  -5.7201  -5.6294  -5.6294  -5.5010  -5.5010  -5.3646  -5.3646
     5.6274   5.6274   5.7899   5.7899   6.0293   6.0293   6.3267   6.3267
     6.6126   6.6126   7.1818   7.1818   8.2402   8.2402   8.3429   8.3429
     9.5024   9.5024   9.6584   9.6584  10.4083  10.4083  10.7308  10.7308
    11.8060  11.8060  11.9431  11.9431  12.1983  12.1983  12.7478  12.7478
    13.3425  13.3425  13.9199  13.9199  15.5674  15.5674  16.0987  16.0987
    17.0450  17.0450  17.5944  17.5944  22.9669  22.9669

     occupation numbers 
     1.0000   1.0000   1.0000   1.0000   1.0000   1.0000   1.0000   1.0000
     1.0000   1.0000   1.0000   1.0000   1.0000   1.0000   1.0000   1.0000
     1.0000   1.0000   1.0000   1.0000   1.0000   1.0000   1.0000   1.0000
     1.0000   1.0000   1.0000   1.0000   1.0000   1.0000   1.0000   1.0000
     1.0000   1.0000   1.0000   1.0000   1.0000   1.0000   1.0000   1.0000
     1.0000   1.0000   1.0000   1.0000   1.0000   1.0000   1.0000   1.0000
     1.0000   1.0000   1.0000   1.0000   1.0000   1.0000   1.0000   1.0000
     1.0000   1.0000   0.1907   0.1907  -0.0000  -0.0000  -0.0000  -0.0000
    -0.0000  -0.0000  -0.0000  -0.0000  -0.0000  -0.0000

     the Fermi energy is    13.8928 ev

!    total energy              =    -553.08027027 Ry
     estimated scf accuracy    <          1.8E-11 Ry
     smearing contrib. (-TS)   =       0.00012020 Ry
     internal energy E=F+TS    =    -553.08039047 Ry

     The total energy is F=E-TS. E is the sum of the following terms:
     one-electron contribution =    -190.90910750 Ry
     hartree contribution      =     122.73038263 Ry
     xc contribution           =     -69.91565507 Ry
     ewald contribution        =    -414.98601052 Ry

     convergence has been achieved in  10 iterations

     Forces acting on atoms (cartesian axes, Ry/au):

     atom    1 type  2   force =     0.00000000    0.00000000    0.00000000
     atom    2 type  2   force =     0.00000000    0.00000000   -0.00000000
     atom    3 type  1   force =     0.00132018   -0.00132018    0.00000000
     atom    4 type  1   force =    -0.00132018   -0.00132018    0.00000000
     atom    5 type  1   force =     0.00132018    0.00132018    0.00000000
     atom    6 type  1   force =    -0.00132018    0.00132018    0.00000000
     The non-local contrib.  to forces
     atom    1 type  2   force =     0.00000000    0.00000000    0.00000000
     atom    2 type  2   force =     0.00000000    0.00000000    0.00000000
     atom    3 type  1   force =    -0.05361279    0.05361279    0.00000000
     atom    4 type  1   force =     0.05361279    0.05361279    0.00000000
     atom    5 type  1   force =    -0.05361279   -0.05361279    0.00000000
     atom    6 type  1   force =     0.05361279   -0.05361279    0.00000000
     The ionic contribution  to forces
     atom    1 type  2   force =    -0.00000000   -0.00000000    0.00000000
     atom    2 type  2   force =     0.00000000    0.00000000   -0.00000000
     atom    3 type  1   force =     1.42937233   -1.42937233    0.00000000
     atom    4 type  1   force =    -1.42937233   -1.42937233   -0.00000000
     atom    5 type  1   force =     1.42937233    1.42937233   -0.00000000
     atom    6 type  1   force =    -1.42937233    1.42937233    0.00000000
     The local contribution  to forces
     atom    1 type  2   force =     0.00000000    0.00000000    0.00000000
     atom    2 type  2   force =     0.00000000    0.00000000    0.00000000
     atom    3 type  1   force =    -1.37443888    1.37443888    0.00000000
     atom    4 type  1   force =     1.37443888    1.37443888    0.00000000
     atom    5 type  1   force =    -1.37443888   -1.37443888    0.00000000
     atom    6 type  1   force =     1.37443888   -1.37443888    0.00000000
     The core correction contribution to forces
     atom    1 type  2   force =     0.00000000    0.00000000    0.00000000
     atom    2 type  2   force =     0.00000000    0.00000000    0.00000000
     atom    3 type  1   force =     0.00000000    0.00000000    0.00000000
     atom    4 type  1   force =     0.00000000    0.00000000    0.00000000
     atom    5 type  1   force =     0.00000000    0.00000000    0.00000000
     atom    6 type  1   force =     0.00000000    0.00000000    0.00000000
     The Hubbard contrib.    to forces
     atom    1 type  2   force =     0.00000000    0.00000000    0.00000000
     atom    2 type  2   force =     0.00000000    0.00000000    0.00000000
     atom    3 type  1   force =     0.00000000    0.00000000    0.00000000
     atom    4 type  1   force =     0.00000000    0.00000000    0.00000000
     atom    5 type  1   force =     0.00000000    0.00000000    0.00000000
     atom    6 type  1   force =     0.00000000    0.00000000    0.00000000
     The SCF correction term to forces
     atom    1 type  2   force =     0.00000000   -0.00000000    0.00000000
     atom    2 type  2   force =    -0.00000000   -0.00000000    0.00000000
     atom    3 type  1   force =    -0.00000047    0.00000047    0.00000000
     atom    4 type  1   force =     0.00000047    0.00000047   -0.00000000
     atom    5 type  1   force =    -0.00000047   -0.00000047   -0.00000000
     atom    6 type  1   force =     0.00000047   -0.00000047    0.00000000

     Total force =     0.003734     Total SCF correction =     0.000001


     Computing stress (Cartesian axis) and pressure

          total   stress  (Ry/bohr**3)                   (kbar)     P=      -20.39
  -0.00011947   0.00000000   0.00000000          -17.57        0.00        0.00
   0.00000000  -0.00011947   0.00000000            0.00      -17.57        0.00
   0.00000000   0.00000000  -0.00017687            0.00        0.00      -26.02

     kinetic stress (kbar)  48452.24      0.00      0.00
                                0.00  48452.24      0.00
                                0.00      0.00  47535.29

     local   stress (kbar) -12678.40      0.00      0.00
                                0.00 -12678.40     -0.00
                                0.00     -0.00 -44415.15

     nonloc. stress (kbar)  14523.96      0.00      0.00
                                0.00  14523.96      0.00
                                0.00      0.00  14743.22

     hartree stress (kbar)   9609.17      0.00      0.00
                                0.00   9609.17      0.00
                                0.00      0.00  21381.61

     exc-cor stress (kbar)  -7288.33     -0.00     -0.00
                               -0.00  -7288.33     -0.00
                               -0.00     -0.00  -7263.54

     corecor stress (kbar)      0.00      0.00      0.00
                                0.00      0.00      0.00
                                0.00      0.00      0.00

     ewald   stress (kbar) -52636.21      0.00     -0.00
                                0.00 -52636.21     -0.00
                               -0.00     -0.00 -32007.45

     hubbard stress (kbar)      0.00      0.00      0.00
                                0.00      0.00      0.00
                                0.00      0.00      0.00

     DFT-D   stress (kbar)      0.00      0.00      0.00
                                0.00      0.00      0.00
                                0.00      0.00      0.00

     XDM     stress (kbar)      0.00      0.00      0.00
                                0.00      0.00      0.00
                                0.00      0.00      0.00

     dft-nl  stress (kbar)      0.00      0.00      0.00
                                0.00      0.00      0.00
                                0.00      0.00      0.00

     TS-vdW  stress (kbar)      0.00      0.00      0.00
                                0.00      0.00      0.00
                                0.00      0.00      0.00


                                0.00      0.00      0.00
                                0.00      0.00      0.00


                                0.00      0.00      0.00


     Writing all to output data dir tmp/espresso.save/
 
     init_run     :      3.64s CPU      1.91s WALL (       1 calls)
     electrons    :    121.10s CPU     62.13s WALL (       1 calls)
     forces       :      7.17s CPU      3.68s WALL (       1 calls)
     stress       :      9.39s CPU      4.74s WALL (       1 calls)

     Called by init_run:
     wfcinit      :      3.58s CPU      1.85s WALL (       1 calls)
     wfcinit:atom :      0.01s CPU      0.01s WALL (      36 calls)
     wfcinit:wfcr :      3.49s CPU      1.80s WALL (      36 calls)
     potinit      :      0.02s CPU      0.01s WALL (       1 calls)
     hinit0       :      0.03s CPU      0.03s WALL (       1 calls)

     Called by electrons:
     c_bands      :    110.80s CPU     56.79s WALL (      10 calls)
     sum_band     :     10.14s CPU      5.23s WALL (      10 calls)
     v_of_rho     :      0.05s CPU      0.03s WALL (      11 calls)
     v_h          :      0.01s CPU      0.00s WALL (      11 calls)
     v_xc         :      0.04s CPU      0.02s WALL (      11 calls)
     mix_rho      :      0.05s CPU      0.03s WALL (      10 calls)

     Called by c_bands:
     init_us_2    :      0.32s CPU      0.17s WALL (     828 calls)
     init_us_2:cp :      0.32s CPU      0.17s WALL (     828 calls)
     cegterg      :    102.32s CPU     52.46s WALL (     360 calls)

     Called by sum_band:
     sum_band:wei :      0.06s CPU      0.03s WALL (      10 calls)
     sum_band:loo :     10.06s CPU      5.18s WALL (      10 calls)
     sum_band:buf :      0.06s CPU      0.03s WALL (     360 calls)
     sum_band:ini :      0.10s CPU      0.05s WALL (     360 calls)

     Called by *egterg:
     cdiaghg      :     14.18s CPU      7.22s WALL (    1144 calls)
     cegterg:over :      6.42s CPU      3.26s WALL (     784 calls)
     cegterg:upda :      4.99s CPU      2.54s WALL (     784 calls)
     cegterg:last :      8.83s CPU      4.49s WALL (     720 calls)
     cdiaghg:chol :      0.67s CPU      0.34s WALL (    1144 calls)
     cdiaghg:inve :      0.10s CPU      0.05s WALL (    1144 calls)
     cdiaghg:para :      1.47s CPU      0.75s WALL (    2288 calls)
     h_psi        :     68.64s CPU     35.34s WALL (    1180 calls)
     g_psi        :      0.10s CPU      0.05s WALL (     784 calls)

     Called by h_psi:
     h_psi:calbec :      8.27s CPU      4.32s WALL (    1180 calls)
     vloc_psi     :     48.40s CPU     24.93s WALL (    1180 calls)
     add_vuspsi   :     11.82s CPU      6.01s WALL (    1180 calls)

     General routines
     calbec       :     11.59s CPU      6.04s WALL (    1360 calls)
     fft          :      0.06s CPU      0.03s WALL (     150 calls)
     ffts         :      0.01s CPU      0.01s WALL (      40 calls)
     fftw         :     54.75s CPU     28.21s WALL (  308944 calls)
 
     Parallel routines
 
     PWSCF        :   2m25.53s CPU   1m15.67s WALL

 
   This run was terminated on:  11:59:39  10Apr2022            

=------------------------------------------------------------------------------=
   JOB DONE.
=------------------------------------------------------------------------------=
