
     Program PWSCF v.7.0 starts on 10Apr2022 at 10:52:57 

     This program is part of the open-source Quantum ESPRESSO suite
     for quantum simulation of materials; please cite
         "P. Giannozzi et al., J. Phys.:Condens. Matter 21 395502 (2009);
         "P. Giannozzi et al., J. Phys.:Condens. Matter 29 465901 (2017);
         "P. Giannozzi et al., J. Chem. Phys. 152 154105 (2020);
          URL http://www.quantum-espresso.org", 
     in publications or presentations arising from this work. More details at
     http://www.quantum-espresso.org/quote

     Parallel version (MPI & OpenMP), running on      64 processor cores
     Number of MPI processes:                32
     Threads/MPI process:                     2

     MPI processes distributed on     1 nodes
     R & G space division:  proc/nbgrp/npool/nimage =      32
     230676 MiB available memory on the printing compute node when the environment starts
 
     Reading input from kpoints_228.pwi
Warning: card &CELL ignored
Warning: card / ignored

     Current dimensions of program PWSCF are:
     Max number of different atomic species (ntypx) = 10
     Max number of k-points (npk) =  40000
     Max angular momentum in pseudopotentials (lmaxx) =  4

     Subspace diagonalization in iterative solution of the eigenvalue problem:
     one sub-group per band group will be used
     scalapack distributed-memory algorithm (size of sub-group:  5*  5 procs)

 
     Parallelization info
     --------------------
     sticks:   dense  smooth     PW     G-vecs:    dense   smooth      PW
     Min          58      58     17                 1342     1342     211
     Max          59      59     18                 1345     1345     214
     Sum        1885    1885    553                42999    42999    6811
 
     Using Slab Decomposition
 

     Title: 
     IrO2 Unit Cell                                                             


     bravais-lattice index     =            6
     lattice parameter (alat)  =       8.5888  a.u.
     unit-cell volume          =     444.6868 (a.u.)^3
     number of atoms/cell      =            6
     number of atomic types    =            2
     number of electrons       =        58.00
     number of Kohn-Sham states=           70
     kinetic-energy cutoff     =      80.0000  Ry
     charge density cutoff     =     320.0000  Ry
     scf convergence threshold =      1.0E-09
     mixing beta               =       0.7000
     number of iterations used =            8  plain     mixing
     Exchange-correlation= PBE
                           (   1   4   3   4   0   0   0)
     Non magnetic calculation with spin-orbit


     celldm(1)=   8.588800  celldm(2)=   0.000000  celldm(3)=   0.701870
     celldm(4)=   0.000000  celldm(5)=   0.000000  celldm(6)=   0.000000

     crystal axes: (cart. coord. in units of alat)
               a(1) = (   1.000000   0.000000   0.000000 )  
               a(2) = (   0.000000   1.000000   0.000000 )  
               a(3) = (   0.000000   0.000000   0.701870 )  

     reciprocal axes: (cart. coord. in units 2 pi/alat)
               b(1) = (  1.000000  0.000000  0.000000 )  
               b(2) = (  0.000000  1.000000  0.000000 )  
               b(3) = (  0.000000  0.000000  1.424765 )  


     PseudoPot. # 1 for O  read from file:
     ../../XX_PSEUDO/O_ONCV_PBE_fr.upf
     MD5 check sum: 59c925217d3b58c6d762355590b68b09
     Pseudo is Norm-conserving, Zval =  6.0
     Generated using ONCVPSP code by D. R. Hamann
     Using radial grid of  936 points,  6 beta functions with: 
                l(1) =   0
                l(2) =   0
                l(3) =   1
                l(4) =   1
                l(5) =   1
                l(6) =   1

     PseudoPot. # 2 for Ir read from file:
     ../../XX_PSEUDO/Ir_ONCV_PBE_fr.upf
     MD5 check sum: 924e909c4146afa09f62ee3401806954
     Pseudo is Norm-conserving, Zval = 17.0
     Generated using ONCVPSP code by D. R. Hamann
     Using radial grid of 1310 points, 14 beta functions with: 
                l(1) =   0
                l(2) =   0
                l(3) =   1
                l(4) =   1
                l(5) =   1
                l(6) =   1
                l(7) =   2
                l(8) =   2
                l(9) =   2
               l(10) =   2
               l(11) =   3
               l(12) =   3
               l(13) =   3
               l(14) =   3

     atomic species   valence    mass     pseudopotential
        O              6.00    15.99900     O ( 1.00)
        Ir            17.00   192.21700     Ir( 1.00)

     16 Sym. Ops., with inversion, found ( 8 have fractional translation)


                                    s                        frac. trans.

      isym =  1     identity                                     

 cryst.   s( 1) = (     1          0          0      )
                  (     0          1          0      )
                  (     0          0          1      )

 cart.    s( 1) = (  1.0000000  0.0000000  0.0000000 )
                  (  0.0000000  1.0000000  0.0000000 )
                  (  0.0000000  0.0000000  1.0000000 )


      isym =  2     180 deg rotation - cart. axis [0,0,1]        

 cryst.   s( 2) = (    -1          0          0      )
                  (     0         -1          0      )
                  (     0          0          1      )

 cart.    s( 2) = ( -1.0000000  0.0000000  0.0000000 )
                  (  0.0000000 -1.0000000  0.0000000 )
                  (  0.0000000  0.0000000  1.0000000 )


      isym =  3     180 deg rotation - cart. axis [0,1,0]        

 cryst.   s( 3) = (    -1          0          0      )    f =(  0.5000000 )
                  (     0          1          0      )       ( -0.5000000 )
                  (     0          0         -1      )       (  0.5000000 )

 cart.    s( 3) = ( -1.0000000  0.0000000  0.0000000 )    f =(  0.5000000 )
                  (  0.0000000  1.0000000  0.0000000 )       ( -0.5000000 )
                  (  0.0000000  0.0000000 -1.0000000 )       (  0.3509351 )


      isym =  4     180 deg rotation - cart. axis [1,0,0]        

 cryst.   s( 4) = (     1          0          0      )    f =( -0.5000000 )
                  (     0         -1          0      )       (  0.5000000 )
                  (     0          0         -1      )       (  0.5000000 )

 cart.    s( 4) = (  1.0000000  0.0000000  0.0000000 )    f =( -0.5000000 )
                  (  0.0000000 -1.0000000  0.0000000 )       (  0.5000000 )
                  (  0.0000000  0.0000000 -1.0000000 )       (  0.3509351 )


      isym =  5     180 deg rotation - cart. axis [1,1,0]        

 cryst.   s( 5) = (     0          1          0      )
                  (     1          0          0      )
                  (     0          0         -1      )

 cart.    s( 5) = (  0.0000000  1.0000000  0.0000000 )
                  (  1.0000000  0.0000000  0.0000000 )
                  (  0.0000000  0.0000000 -1.0000000 )


      isym =  6     180 deg rotation - cart. axis [1,-1,0]       

 cryst.   s( 6) = (     0         -1          0      )
                  (    -1          0          0      )
                  (     0          0         -1      )

 cart.    s( 6) = (  0.0000000 -1.0000000  0.0000000 )
                  ( -1.0000000  0.0000000  0.0000000 )
                  (  0.0000000  0.0000000 -1.0000000 )


      isym =  7      90 deg rotation - cart. axis [0,0,-1]       

 cryst.   s( 7) = (     0         -1          0      )    f =( -0.5000000 )
                  (     1          0          0      )       (  0.5000000 )
                  (     0          0          1      )       ( -0.5000000 )

 cart.    s( 7) = (  0.0000000  1.0000000  0.0000000 )    f =( -0.5000000 )
                  ( -1.0000000  0.0000000  0.0000000 )       (  0.5000000 )
                  (  0.0000000  0.0000000  1.0000000 )       ( -0.3509351 )


      isym =  8      90 deg rotation - cart. axis [0,0,1]        

 cryst.   s( 8) = (     0          1          0      )    f =(  0.5000000 )
                  (    -1          0          0      )       ( -0.5000000 )
                  (     0          0          1      )       ( -0.5000000 )

 cart.    s( 8) = (  0.0000000 -1.0000000  0.0000000 )    f =(  0.5000000 )
                  (  1.0000000  0.0000000  0.0000000 )       ( -0.5000000 )
                  (  0.0000000  0.0000000  1.0000000 )       ( -0.3509351 )


      isym =  9     inversion                                    

 cryst.   s( 9) = (    -1          0          0      )
                  (     0         -1          0      )
                  (     0          0         -1      )

 cart.    s( 9) = ( -1.0000000  0.0000000  0.0000000 )
                  (  0.0000000 -1.0000000  0.0000000 )
                  (  0.0000000  0.0000000 -1.0000000 )


      isym = 10     inv. 180 deg rotation - cart. axis [0,0,1]   

 cryst.   s(10) = (     1          0          0      )
                  (     0          1          0      )
                  (     0          0         -1      )

 cart.    s(10) = (  1.0000000  0.0000000  0.0000000 )
                  (  0.0000000  1.0000000  0.0000000 )
                  (  0.0000000  0.0000000 -1.0000000 )


      isym = 11     inv. 180 deg rotation - cart. axis [0,1,0]   

 cryst.   s(11) = (     1          0          0      )    f =( -0.5000000 )
                  (     0         -1          0      )       (  0.5000000 )
                  (     0          0          1      )       ( -0.5000000 )

 cart.    s(11) = (  1.0000000  0.0000000  0.0000000 )    f =( -0.5000000 )
                  (  0.0000000 -1.0000000  0.0000000 )       (  0.5000000 )
                  (  0.0000000  0.0000000  1.0000000 )       ( -0.3509351 )


      isym = 12     inv. 180 deg rotation - cart. axis [1,0,0]   

 cryst.   s(12) = (    -1          0          0      )    f =(  0.5000000 )
                  (     0          1          0      )       ( -0.5000000 )
                  (     0          0          1      )       ( -0.5000000 )

 cart.    s(12) = ( -1.0000000  0.0000000  0.0000000 )    f =(  0.5000000 )
                  (  0.0000000  1.0000000  0.0000000 )       ( -0.5000000 )
                  (  0.0000000  0.0000000  1.0000000 )       ( -0.3509351 )


      isym = 13     inv. 180 deg rotation - cart. axis [1,1,0]   

 cryst.   s(13) = (     0         -1          0      )
                  (    -1          0          0      )
                  (     0          0          1      )

 cart.    s(13) = (  0.0000000 -1.0000000  0.0000000 )
                  ( -1.0000000  0.0000000  0.0000000 )
                  (  0.0000000  0.0000000  1.0000000 )


      isym = 14     inv. 180 deg rotation - cart. axis [1,-1,0]  

 cryst.   s(14) = (     0          1          0      )
                  (     1          0          0      )
                  (     0          0          1      )

 cart.    s(14) = (  0.0000000  1.0000000  0.0000000 )
                  (  1.0000000  0.0000000  0.0000000 )
                  (  0.0000000  0.0000000  1.0000000 )


      isym = 15     inv.  90 deg rotation - cart. axis [0,0,-1]  

 cryst.   s(15) = (     0          1          0      )    f =(  0.5000000 )
                  (    -1          0          0      )       ( -0.5000000 )
                  (     0          0         -1      )       (  0.5000000 )

 cart.    s(15) = (  0.0000000 -1.0000000  0.0000000 )    f =(  0.5000000 )
                  (  1.0000000  0.0000000  0.0000000 )       ( -0.5000000 )
                  (  0.0000000  0.0000000 -1.0000000 )       (  0.3509351 )


      isym = 16     inv.  90 deg rotation - cart. axis [0,0,1]   

 cryst.   s(16) = (     0         -1          0      )    f =( -0.5000000 )
                  (     1          0          0      )       (  0.5000000 )
                  (     0          0         -1      )       (  0.5000000 )

 cart.    s(16) = (  0.0000000  1.0000000  0.0000000 )    f =( -0.5000000 )
                  ( -1.0000000  0.0000000  0.0000000 )       (  0.5000000 )
                  (  0.0000000  0.0000000 -1.0000000 )       (  0.3509351 )


     double point group D_4h(4/mmm)
     there are 14 classes and  4 irreducible representations
     the character table:

       E     -E    2C4   -2C4   C2    2C2' 2C2'' i     -i    2S4   -2S4   s_h 
                               -C2   -2C2' -2C2'                         -s_h 
G_6+   2.00 -2.00  1.41 -1.41  0.00  0.00  0.00  2.00 -2.00  1.41 -1.41  0.00
G_7+   2.00 -2.00 -1.41  1.41  0.00  0.00  0.00  2.00 -2.00 -1.41  1.41  0.00
G_6-   2.00 -2.00  1.41 -1.41  0.00  0.00  0.00 -2.00  2.00 -1.41  1.41  0.00
G_7-   2.00 -2.00 -1.41  1.41  0.00  0.00  0.00 -2.00  2.00  1.41 -1.41  0.00

        2s_v  2s_d
       -2s_v -2s_d
G_6+   0.00  0.00
G_7+   0.00  0.00
G_6-   0.00  0.00
G_7-   0.00  0.00

     the symmetry operations in each class and the name of the first element:

     E             1
          identity                                               
     -E           -1
          identity E                                             
     2C4           7    8
           90 deg rotation - cart. axis [0,0,-1]                 
     -2C4         -7   -8
           90 deg rotation - cart. axis [0,0,-1] E               
      C2  -C2      2   -2
          180 deg rotation - cart. axis [0,0,1]                  
      2C2'-2C2'    3   -3    4   -4
          180 deg rotation - cart. axis [0,1,0]                  
     2C2''-2C2'    5   -5   -6    6
          180 deg rotation - cart. axis [1,1,0]                  
     i             9
          inversion                                              
     -i           -9
          inversion E                                            
     2S4          15   16
          inv.  90 deg rotation - cart. axis [0,0,-1]            
     -2S4        -15  -16
          inv.  90 deg rotation - cart. axis [0,0,-1] E          
      s_h -s_h    10  -10
          inv. 180 deg rotation - cart. axis [0,0,1]             
      2s_v-2s_v   11  -11   12  -12
          inv. 180 deg rotation - cart. axis [0,1,0]             
      2s_d-2s_d   13  -13  -14   14
          inv. 180 deg rotation - cart. axis [1,1,0]             

   Cartesian axes

     site n.     atom                  positions (alat units)
         1           Ir  tau(   1) = (   0.0000000   0.0000000   0.0000000  )
         2           Ir  tau(   2) = (   0.5000000   0.5000000   0.3509351  )
         3           O   tau(   3) = (   0.1916000   0.8084000   0.3509351  )
         4           O   tau(   4) = (   0.3084000   0.3084000   0.0000000  )
         5           O   tau(   5) = (   0.6916000   0.6916000   0.0000000  )
         6           O   tau(   6) = (   0.8084000   0.1916000   0.3509351  )

   Crystallographic axes

     site n.     atom                  positions (cryst. coord.)
         1           Ir  tau(   1) = (  0.0000000  0.0000000  0.0000000  )
         2           Ir  tau(   2) = (  0.5000000  0.5000000  0.5000000  )
         3           O   tau(   3) = (  0.1916000  0.8084000  0.5000000  )
         4           O   tau(   4) = (  0.3084000  0.3084000  0.0000000  )
         5           O   tau(   5) = (  0.6916000  0.6916000  0.0000000  )
         6           O   tau(   6) = (  0.8084000  0.1916000  0.5000000  )

     number of k points=    15  Methfessel-Paxton smearing, width (Ry)=  0.0050
                       cart. coord. in units 2pi/alat
        k(    1) = (   0.0000000   0.0000000   0.0000000), wk =   0.0312500
        k(    2) = (   0.0000000   0.0000000   0.1780956), wk =   0.0625000
        k(    3) = (   0.0000000   0.0000000   0.3561912), wk =   0.0625000
        k(    4) = (   0.0000000   0.0000000   0.5342868), wk =   0.0625000
        k(    5) = (   0.0000000   0.0000000  -0.7123824), wk =   0.0312500
        k(    6) = (   0.0000000  -0.5000000   0.0000000), wk =   0.0625000
        k(    7) = (   0.0000000  -0.5000000   0.1780956), wk =   0.1250000
        k(    8) = (   0.0000000  -0.5000000   0.3561912), wk =   0.1250000
        k(    9) = (   0.0000000  -0.5000000   0.5342868), wk =   0.1250000
        k(   10) = (   0.0000000  -0.5000000  -0.7123824), wk =   0.0625000
        k(   11) = (  -0.5000000  -0.5000000   0.0000000), wk =   0.0312500
        k(   12) = (  -0.5000000  -0.5000000   0.1780956), wk =   0.0625000
        k(   13) = (  -0.5000000  -0.5000000   0.3561912), wk =   0.0625000
        k(   14) = (  -0.5000000  -0.5000000   0.5342868), wk =   0.0625000
        k(   15) = (  -0.5000000  -0.5000000  -0.7123824), wk =   0.0312500

                       cryst. coord.
        k(    1) = (   0.0000000   0.0000000   0.0000000), wk =   0.0312500
        k(    2) = (   0.0000000   0.0000000   0.1250000), wk =   0.0625000
        k(    3) = (   0.0000000   0.0000000   0.2500000), wk =   0.0625000
        k(    4) = (   0.0000000   0.0000000   0.3750000), wk =   0.0625000
        k(    5) = (   0.0000000   0.0000000  -0.5000000), wk =   0.0312500
        k(    6) = (   0.0000000  -0.5000000   0.0000000), wk =   0.0625000
        k(    7) = (   0.0000000  -0.5000000   0.1250000), wk =   0.1250000
        k(    8) = (   0.0000000  -0.5000000   0.2500000), wk =   0.1250000
        k(    9) = (   0.0000000  -0.5000000   0.3750000), wk =   0.1250000
        k(   10) = (   0.0000000  -0.5000000  -0.5000000), wk =   0.0625000
        k(   11) = (  -0.5000000  -0.5000000   0.0000000), wk =   0.0312500
        k(   12) = (  -0.5000000  -0.5000000   0.1250000), wk =   0.0625000
        k(   13) = (  -0.5000000  -0.5000000   0.2500000), wk =   0.0625000
        k(   14) = (  -0.5000000  -0.5000000   0.3750000), wk =   0.0625000
        k(   15) = (  -0.5000000  -0.5000000  -0.5000000), wk =   0.0312500

     Dense  grid:    42999 G-vectors     FFT dimensions: (  50,  50,  36)

     Dynamical RAM for                 wfc:       0.36 MB

     Dynamical RAM for     wfc (w. buffer):       5.71 MB

     Dynamical RAM for           str. fact:       0.04 MB

     Dynamical RAM for           local pot:       0.00 MB

     Dynamical RAM for          nlocal pot:       0.46 MB

     Dynamical RAM for                qrad:      20.10 MB

     Dynamical RAM for          rho,v,vnew:       0.70 MB

     Dynamical RAM for               rhoin:       0.23 MB

     Dynamical RAM for            rho*nmix:       1.31 MB

     Dynamical RAM for           G-vectors:       0.09 MB

     Dynamical RAM for          h,s,v(r/c):       0.04 MB

     Dynamical RAM for          <psi|beta>:       0.38 MB

     Dynamical RAM for                 psi:       0.71 MB

     Dynamical RAM for                hpsi:       0.71 MB

     Dynamical RAM for      wfcinit/wfcrot:       0.67 MB

     Estimated static dynamical RAM per process >      27.70 MB

     Estimated max dynamical RAM per process >      30.86 MB

     Estimated total dynamical RAM >     987.49 MB

     Initial potential from superposition of free atoms

     starting charge      57.9997, renormalised to      58.0000
     Starting wfcs are   72 randomized atomic wfcs

     total cpu time spent up to now is        0.9 secs

     Self-consistent Calculation

     iteration #  1     ecut=    80.00 Ry     beta= 0.70
     Davidson diagonalization with overlap

---- Real-time Memory Report at c_bands before calling an iterative solver
            77 MiB given to the printing process from OS
             0 MiB allocation reported by mallinfo(arena+hblkhd)
        229190 MiB available memory on the node where the printing process lives
------------------
     ethr =  1.00E-02,  avg # of iterations =  2.5

     total cpu time spent up to now is        3.5 secs

     total energy              =    -552.41466194 Ry
     estimated scf accuracy    <       1.22140500 Ry

     iteration #  2     ecut=    80.00 Ry     beta= 0.70
     Davidson diagonalization with overlap

---- Real-time Memory Report at c_bands before calling an iterative solver
            83 MiB given to the printing process from OS
             0 MiB allocation reported by mallinfo(arena+hblkhd)
        229062 MiB available memory on the node where the printing process lives
------------------
     ethr =  2.11E-03,  avg # of iterations =  2.1

     total cpu time spent up to now is        6.3 secs

     total energy              =    -552.27918037 Ry
     estimated scf accuracy    <       4.31047000 Ry

     iteration #  3     ecut=    80.00 Ry     beta= 0.70
     Davidson diagonalization with overlap

---- Real-time Memory Report at c_bands before calling an iterative solver
            85 MiB given to the printing process from OS
             0 MiB allocation reported by mallinfo(arena+hblkhd)
        228936 MiB available memory on the node where the printing process lives
------------------
     ethr =  2.11E-03,  avg # of iterations =  2.0

     total cpu time spent up to now is        9.0 secs

     total energy              =    -553.07007697 Ry
     estimated scf accuracy    <       0.03108858 Ry

     iteration #  4     ecut=    80.00 Ry     beta= 0.70
     Davidson diagonalization with overlap

---- Real-time Memory Report at c_bands before calling an iterative solver
            89 MiB given to the printing process from OS
             0 MiB allocation reported by mallinfo(arena+hblkhd)
        228866 MiB available memory on the node where the printing process lives
------------------
     ethr =  5.36E-05,  avg # of iterations =  2.9

     total cpu time spent up to now is       11.7 secs

     total energy              =    -553.07396530 Ry
     estimated scf accuracy    <       0.00428166 Ry

     iteration #  5     ecut=    80.00 Ry     beta= 0.70
     Davidson diagonalization with overlap

---- Real-time Memory Report at c_bands before calling an iterative solver
            90 MiB given to the printing process from OS
             0 MiB allocation reported by mallinfo(arena+hblkhd)
        228861 MiB available memory on the node where the printing process lives
------------------
     c_bands:  1 eigenvalues not converged
     ethr =  7.38E-06,  avg # of iterations =  4.1

     total cpu time spent up to now is       14.3 secs

     total energy              =    -553.07468366 Ry
     estimated scf accuracy    <       0.00025472 Ry

     iteration #  6     ecut=    80.00 Ry     beta= 0.70
     Davidson diagonalization with overlap

---- Real-time Memory Report at c_bands before calling an iterative solver
            91 MiB given to the printing process from OS
             0 MiB allocation reported by mallinfo(arena+hblkhd)
        228860 MiB available memory on the node where the printing process lives
------------------
     ethr =  4.39E-07,  avg # of iterations =  2.5

     total cpu time spent up to now is       16.6 secs

     total energy              =    -553.07470696 Ry
     estimated scf accuracy    <       0.00001605 Ry

     iteration #  7     ecut=    80.00 Ry     beta= 0.70
     Davidson diagonalization with overlap

---- Real-time Memory Report at c_bands before calling an iterative solver
            91 MiB given to the printing process from OS
             0 MiB allocation reported by mallinfo(arena+hblkhd)
        228858 MiB available memory on the node where the printing process lives
------------------
     ethr =  2.77E-08,  avg # of iterations =  2.0

     total cpu time spent up to now is       19.4 secs

     total energy              =    -553.07471213 Ry
     estimated scf accuracy    <       0.00000150 Ry

     iteration #  8     ecut=    80.00 Ry     beta= 0.70
     Davidson diagonalization with overlap

---- Real-time Memory Report at c_bands before calling an iterative solver
            91 MiB given to the printing process from OS
             0 MiB allocation reported by mallinfo(arena+hblkhd)
        228845 MiB available memory on the node where the printing process lives
------------------
     ethr =  2.58E-09,  avg # of iterations =  1.8

     total cpu time spent up to now is       21.6 secs

     total energy              =    -553.07471210 Ry
     estimated scf accuracy    <       0.00000031 Ry

     iteration #  9     ecut=    80.00 Ry     beta= 0.70
     Davidson diagonalization with overlap

---- Real-time Memory Report at c_bands before calling an iterative solver
            92 MiB given to the printing process from OS
             0 MiB allocation reported by mallinfo(arena+hblkhd)
        228843 MiB available memory on the node where the printing process lives
------------------
     ethr =  5.35E-10,  avg # of iterations =  2.0

     total cpu time spent up to now is       24.2 secs

     total energy              =    -553.07471217 Ry
     estimated scf accuracy    <          9.4E-09 Ry

     iteration # 10     ecut=    80.00 Ry     beta= 0.70
     Davidson diagonalization with overlap

---- Real-time Memory Report at c_bands before calling an iterative solver
            93 MiB given to the printing process from OS
             0 MiB allocation reported by mallinfo(arena+hblkhd)
        228839 MiB available memory on the node where the printing process lives
------------------
     ethr =  1.62E-11,  avg # of iterations =  2.2

     total cpu time spent up to now is       26.7 secs

     End of self-consistent calculation

          k = 0.0000 0.0000 0.0000 (  5409 PWs)   bands (ev):

   -79.3671 -79.3671 -79.3657 -79.3657 -46.2102 -46.2102 -46.1995 -46.1995
   -32.7489 -32.7489 -32.7448 -32.7448 -32.6078 -32.6078 -32.5867 -32.5867
    -7.0893  -7.0893  -5.9344  -5.9344  -5.0207  -5.0207  -4.8192  -4.8192
     4.2633   4.2633   4.5114   4.5114   6.0262   6.0262   6.1368   6.1368
     6.2554   6.2554   8.7708   8.7708   8.9249   8.9249   9.1817   9.1817
    10.3156  10.3156  10.9697  10.9697  10.9943  10.9943  11.0126  11.0126
    11.2176  11.2176  11.4091  11.4091  11.6232  11.6232  11.6759  11.6759
    12.0673  12.0673  14.6555  14.6555  15.0840  15.0840  17.6828  17.6828
    17.8904  17.8904  18.0401  18.0401  19.4446  19.4446

     occupation numbers 
     1.0000   1.0000   1.0000   1.0000   1.0000   1.0000   1.0000   1.0000
     1.0000   1.0000   1.0000   1.0000   1.0000   1.0000   1.0000   1.0000
     1.0000   1.0000   1.0000   1.0000   1.0000   1.0000   1.0000   1.0000
     1.0000   1.0000   1.0000   1.0000   1.0000   1.0000   1.0000   1.0000
     1.0000   1.0000   1.0000   1.0000   1.0000   1.0000   1.0000   1.0000
     1.0000   1.0000   1.0000   1.0000   1.0000   1.0000   1.0000   1.0000
     1.0000   1.0000   1.0000   1.0000   1.0000   1.0000   1.0000   1.0000
     1.0000   1.0000  -0.0000  -0.0000  -0.0000  -0.0000  -0.0000  -0.0000
    -0.0000  -0.0000  -0.0000  -0.0000  -0.0000  -0.0000

          k = 0.0000 0.0000 0.1781 (  5369 PWs)   bands (ev):

   -79.3667 -79.3667 -79.3655 -79.3655 -46.2115 -46.2115 -46.2016 -46.2016
   -32.7539 -32.7539 -32.7538 -32.7538 -32.6124 -32.6124 -32.5891 -32.5891
    -6.9482  -6.9482  -5.8616  -5.8616  -5.0865  -5.0865  -4.9075  -4.9075
     4.4693   4.4693   4.6601   4.6601   6.1486   6.1486   6.2218   6.2218
     6.4062   6.4062   8.2350   8.2350   9.0307   9.0307   9.2892   9.2892
     9.5284   9.5284  10.1139  10.1139  10.2187  10.2187  11.3027  11.3027
    11.6135  11.6135  11.6383  11.6383  11.7678  11.7678  12.3533  12.3533
    12.4479  12.4479  14.9370  14.9370  14.9832  14.9832  17.3232  17.3232
    17.6397  17.6397  18.2926  18.2926  19.1760  19.1760

     occupation numbers 
     1.0000   1.0000   1.0000   1.0000   1.0000   1.0000   1.0000   1.0000
     1.0000   1.0000   1.0000   1.0000   1.0000   1.0000   1.0000   1.0000
     1.0000   1.0000   1.0000   1.0000   1.0000   1.0000   1.0000   1.0000
     1.0000   1.0000   1.0000   1.0000   1.0000   1.0000   1.0000   1.0000
     1.0000   1.0000   1.0000   1.0000   1.0000   1.0000   1.0000   1.0000
     1.0000   1.0000   1.0000   1.0000   1.0000   1.0000   1.0000   1.0000
     1.0000   1.0000   1.0000   1.0000   1.0000   1.0000   1.0000   1.0000
     1.0000   1.0000  -0.0000  -0.0000  -0.0000  -0.0000  -0.0000  -0.0000
    -0.0000  -0.0000  -0.0000  -0.0000  -0.0000  -0.0000

          k = 0.0000 0.0000 0.3562 (  5381 PWs)   bands (ev):

   -79.3657 -79.3657 -79.3648 -79.3648 -46.2143 -46.2143 -46.2067 -46.2067
   -32.7762 -32.7762 -32.7703 -32.7703 -32.6184 -32.6184 -32.5944 -32.5944
    -6.5751  -6.5751  -5.7082  -5.7082  -5.2355  -5.2355  -5.1157  -5.1157
     5.0319   5.0319   5.0403   5.0403   6.4582   6.4582   6.4616   6.4616
     6.8552   6.8552   7.2433   7.2433   8.2842   8.2842   9.1038   9.1038
     9.3181   9.3181   9.4316   9.4316   9.7518   9.7518  10.5841  10.5841
    11.7976  11.7976  11.9601  11.9601  12.1585  12.1585  13.1726  13.1726
    13.1940  13.1940  14.5315  14.5315  15.6519  15.6519  16.6609  16.6609
    16.9530  16.9530  17.9982  17.9982  19.8491  19.8491

     occupation numbers 
     1.0000   1.0000   1.0000   1.0000   1.0000   1.0000   1.0000   1.0000
     1.0000   1.0000   1.0000   1.0000   1.0000   1.0000   1.0000   1.0000
     1.0000   1.0000   1.0000   1.0000   1.0000   1.0000   1.0000   1.0000
     1.0000   1.0000   1.0000   1.0000   1.0000   1.0000   1.0000   1.0000
     1.0000   1.0000   1.0000   1.0000   1.0000   1.0000   1.0000   1.0000
     1.0000   1.0000   1.0000   1.0000   1.0000   1.0000   1.0000   1.0000
     1.0000   1.0000   1.0000   1.0000   1.0000   1.0000   1.0000   1.0000
     1.0000   1.0000  -0.0000  -0.0000  -0.0000  -0.0000  -0.0000  -0.0000
    -0.0000  -0.0000  -0.0000  -0.0000  -0.0000  -0.0000

          k = 0.0000 0.0000 0.5343 (  5393 PWs)   bands (ev):

   -79.3647 -79.3647 -79.3642 -79.3642 -46.2165 -46.2165 -46.2124 -46.2124
   -32.7985 -32.7985 -32.7930 -32.7930 -32.6165 -32.6165 -32.6011 -32.6011
    -6.1108  -6.1108  -5.6305  -5.6305  -5.3667  -5.3667  -5.3220  -5.3220
     5.4555   5.4555   5.7009   5.7009   6.4428   6.4428   6.8422   6.8422
     6.8915   6.8915   7.3332   7.3332   7.5933   7.5933   8.4721   8.4721
     8.6005   8.6005   9.5856   9.5856   9.7426   9.7426   9.9439   9.9439
    11.7914  11.7914  12.1452  12.1452  12.4664  12.4664  13.5912  13.5912
    13.8169  13.8169  14.1002  14.1002  16.0656  16.0656  16.2268  16.2268
    16.5505  16.5505  17.0925  17.0925  21.4059  21.4059

     occupation numbers 
     1.0000   1.0000   1.0000   1.0000   1.0000   1.0000   1.0000   1.0000
     1.0000   1.0000   1.0000   1.0000   1.0000   1.0000   1.0000   1.0000
     1.0000   1.0000   1.0000   1.0000   1.0000   1.0000   1.0000   1.0000
     1.0000   1.0000   1.0000   1.0000   1.0000   1.0000   1.0000   1.0000
     1.0000   1.0000   1.0000   1.0000   1.0000   1.0000   1.0000   1.0000
     1.0000   1.0000   1.0000   1.0000   1.0000   1.0000   1.0000   1.0000
     1.0000   1.0000   1.0000   1.0000   1.0000   1.0000   1.0000   1.0000
     0.5381   0.5381  -0.0000  -0.0000  -0.0000  -0.0000  -0.0000  -0.0000
    -0.0000  -0.0000  -0.0000  -0.0000  -0.0000  -0.0000

          k = 0.0000 0.0000-0.7124 (  5314 PWs)   bands (ev):

   -79.3641 -79.3641 -79.3641 -79.3641 -46.2162 -46.2162 -46.2162 -46.2162
   -32.8058 -32.8058 -32.8058 -32.8058 -32.6090 -32.6090 -32.6090 -32.6090
    -5.7499  -5.7499  -5.7499  -5.7499  -5.4175  -5.4175  -5.4175  -5.4175
     5.7298   5.7298   5.7298   5.7298   6.6938   6.6938   6.6938   6.6938
     7.0885   7.0885   7.0885   7.0885   8.1947   8.1947   8.1947   8.1947
     8.5488   8.5488   8.5488   8.5488   9.9407   9.9407   9.9407   9.9407
    11.8972  11.8972  11.8972  11.8972  13.0902  13.0902  13.0902  13.0902
    14.1122  14.1122  14.1122  14.1122  16.0950  16.0950  16.0950  16.0950
    16.6158  16.6158  16.6158  16.6158  22.9133  22.9133

     occupation numbers 
     1.0000   1.0000   1.0000   1.0000   1.0000   1.0000   1.0000   1.0000
     1.0000   1.0000   1.0000   1.0000   1.0000   1.0000   1.0000   1.0000
     1.0000   1.0000   1.0000   1.0000   1.0000   1.0000   1.0000   1.0000
     1.0000   1.0000   1.0000   1.0000   1.0000   1.0000   1.0000   1.0000
     1.0000   1.0000   1.0000   1.0000   1.0000   1.0000   1.0000   1.0000
     1.0000   1.0000   1.0000   1.0000   1.0000   1.0000   1.0000   1.0000
     1.0000   1.0000   1.0000   1.0000   1.0000   1.0000   1.0000   1.0000
    -0.0000  -0.0000  -0.0000  -0.0000  -0.0000  -0.0000  -0.0000  -0.0000
    -0.0000  -0.0000  -0.0000  -0.0000  -0.0000  -0.0000

          k = 0.0000-0.5000 0.0000 (  5380 PWs)   bands (ev):

   -79.3664 -79.3664 -79.3664 -79.3664 -46.2049 -46.2049 -46.2049 -46.2049
   -32.7439 -32.7439 -32.7439 -32.7439 -32.6008 -32.6008 -32.6008 -32.6008
    -6.2963  -6.2963  -6.2963  -6.2963  -5.2797  -5.2797  -5.2797  -5.2797
     5.6204   5.6204   5.6204   5.6204   6.2318   6.2318   6.2318   6.2318
     7.2615   7.2615   7.2615   7.2615   7.8869   7.8869   7.8869   7.8869
     8.7591   8.7591   8.7591   8.7591  10.8075  10.8075  10.8075  10.8075
    12.1330  12.1330  12.1330  12.1330  12.5007  12.5007  12.5007  12.5007
    13.6496  13.6496  13.6496  13.6496  17.2165  17.2165  17.2165  17.2165
    17.5144  17.5144  17.5144  17.5144  20.7633  20.7633

     occupation numbers 
     1.0000   1.0000   1.0000   1.0000   1.0000   1.0000   1.0000   1.0000
     1.0000   1.0000   1.0000   1.0000   1.0000   1.0000   1.0000   1.0000
     1.0000   1.0000   1.0000   1.0000   1.0000   1.0000   1.0000   1.0000
     1.0000   1.0000   1.0000   1.0000   1.0000   1.0000   1.0000   1.0000
     1.0000   1.0000   1.0000   1.0000   1.0000   1.0000   1.0000   1.0000
     1.0000   1.0000   1.0000   1.0000   1.0000   1.0000   1.0000   1.0000
     1.0000   1.0000   1.0000   1.0000   1.0000   1.0000   1.0000   1.0000
     1.0011   1.0011   1.0011   1.0011  -0.0000  -0.0000  -0.0000  -0.0000
    -0.0000  -0.0000  -0.0000  -0.0000  -0.0000  -0.0000

          k = 0.0000-0.5000 0.1781 (  5376 PWs)   bands (ev):

   -79.3661 -79.3661 -79.3661 -79.3661 -46.2069 -46.2069 -46.2062 -46.2062
   -32.7580 -32.7580 -32.7450 -32.7450 -32.6080 -32.6080 -32.5993 -32.5993
    -6.1999  -6.1999  -6.1712  -6.1712  -5.3533  -5.3533  -5.3237  -5.3237
     5.7525   5.7525   5.8611   5.8611   6.1538   6.1538   6.1683   6.1683
     7.4912   7.4912   7.5511   7.5511   7.6661   7.6661   7.6675   7.6675
     8.4642   8.4642   8.5764   8.5764  10.8000  10.8000  10.8222  10.8222
    12.0563  12.0563  12.0807  12.0807  12.6928  12.6928  12.8289  12.8289
    13.5147  13.5147  13.7584  13.7584  16.6099  16.6099  16.8112  16.8112
    17.5503  17.5503  17.6002  17.6002  21.1663  21.1763

     occupation numbers 
     1.0000   1.0000   1.0000   1.0000   1.0000   1.0000   1.0000   1.0000
     1.0000   1.0000   1.0000   1.0000   1.0000   1.0000   1.0000   1.0000
     1.0000   1.0000   1.0000   1.0000   1.0000   1.0000   1.0000   1.0000
     1.0000   1.0000   1.0000   1.0000   1.0000   1.0000   1.0000   1.0000
     1.0000   1.0000   1.0000   1.0000   1.0000   1.0000   1.0000   1.0000
     1.0000   1.0000   1.0000   1.0000   1.0000   1.0000   1.0000   1.0000
     1.0000   1.0000   1.0000   1.0000   1.0000   1.0000   1.0000   1.0000
     1.0000   1.0000   1.0122   1.0122  -0.0000  -0.0000  -0.0000  -0.0000
    -0.0000  -0.0000  -0.0000  -0.0000  -0.0000  -0.0000

          k = 0.0000-0.5000 0.3562 (  5390 PWs)   bands (ev):

   -79.3652 -79.3652 -79.3652 -79.3652 -46.2112 -46.2112 -46.2098 -46.2098
   -32.7839 -32.7839 -32.7609 -32.7609 -32.6154 -32.6154 -32.6001 -32.6001
    -5.9520  -5.9520  -5.9203  -5.9203  -5.4874  -5.4874  -5.4090  -5.4090
     5.9694   5.9694   6.0276   6.0276   6.4439   6.4439   6.5402   6.5402
     6.6570   6.6570   6.7115   6.7115   8.0754   8.0754   8.0761   8.0761
     8.7545   8.7545   8.7555   8.7555  10.4131  10.4131  10.4334  10.4334
    12.0241  12.0241  12.0953  12.0953  12.6524  12.6524  12.9143  12.9143
    13.5866  13.5866  14.0187  14.0187  15.7591  15.7591  15.8790  15.8790
    17.7789  17.7789  17.8634  17.8634  21.9639  21.9814

     occupation numbers 
     1.0000   1.0000   1.0000   1.0000   1.0000   1.0000   1.0000   1.0000
     1.0000   1.0000   1.0000   1.0000   1.0000   1.0000   1.0000   1.0000
     1.0000   1.0000   1.0000   1.0000   1.0000   1.0000   1.0000   1.0000
     1.0000   1.0000   1.0000   1.0000   1.0000   1.0000   1.0000   1.0000
     1.0000   1.0000   1.0000   1.0000   1.0000   1.0000   1.0000   1.0000
     1.0000   1.0000   1.0000   1.0000   1.0000   1.0000   1.0000   1.0000
     1.0000   1.0000   1.0000   1.0000   1.0000   1.0000   1.0000   1.0000
     1.0000   1.0000  -0.0001  -0.0001  -0.0000  -0.0000  -0.0000  -0.0000
    -0.0000  -0.0000  -0.0000  -0.0000  -0.0000  -0.0000

          k = 0.0000-0.5000 0.5343 (  5370 PWs)   bands (ev):

   -79.3644 -79.3644 -79.3644 -79.3644 -46.2154 -46.2154 -46.2136 -46.2136
   -32.8101 -32.8101 -32.7818 -32.7818 -32.6181 -32.6181 -32.5999 -32.5999
    -5.8229  -5.8229  -5.8207  -5.8207  -5.4755  -5.4755  -5.3254  -5.3254
     5.7441   5.7441   5.7779   5.7779   6.1553   6.1553   6.1725   6.1725
     7.1395   7.1395   7.4559   7.4559   8.4068   8.4068   8.4236   8.4236
     8.9335   8.9335   9.0530   9.0530  10.2725  10.2725  10.3164  10.3164
    11.5348  11.5348  11.5638  11.5638  12.2184  12.2184  12.5258  12.5258
    13.9827  13.9827  14.3727  14.3727  15.2096  15.2096  15.2234  15.2234
    18.0784  18.0784  18.2289  18.2289  22.7521  22.7594

     occupation numbers 
     1.0000   1.0000   1.0000   1.0000   1.0000   1.0000   1.0000   1.0000
     1.0000   1.0000   1.0000   1.0000   1.0000   1.0000   1.0000   1.0000
     1.0000   1.0000   1.0000   1.0000   1.0000   1.0000   1.0000   1.0000
     1.0000   1.0000   1.0000   1.0000   1.0000   1.0000   1.0000   1.0000
     1.0000   1.0000   1.0000   1.0000   1.0000   1.0000   1.0000   1.0000
     1.0000   1.0000   1.0000   1.0000   1.0000   1.0000   1.0000   1.0000
     1.0000   1.0000   1.0000   1.0000   1.0000   1.0000   1.0000   1.0000
    -0.0019  -0.0019  -0.0000  -0.0000  -0.0000  -0.0000  -0.0000  -0.0000
    -0.0000  -0.0000  -0.0000  -0.0000  -0.0000  -0.0000

          k = 0.0000-0.5000-0.7124 (  5360 PWs)   bands (ev):

   -79.3641 -79.3641 -79.3641 -79.3641 -46.2172 -46.2172 -46.2152 -46.2152
   -32.8211 -32.8211 -32.7913 -32.7913 -32.6183 -32.6183 -32.5994 -32.5994
    -5.8418  -5.8418  -5.8413  -5.8413  -5.3874  -5.3874  -5.2249  -5.2249
     5.4370   5.4370   5.4797   5.4797   6.2120   6.2120   6.2140   6.2140
     7.5221   7.5221   8.0622   8.0622   8.4744   8.4744   8.6226   8.6226
     8.8262   8.8262   8.9220   8.9220  10.5906  10.5906  10.6021  10.6021
    11.0527  11.0527  11.0647  11.0647  11.9047  11.9047  12.2361  12.2361
    14.1574  14.1574  14.5029  14.5029  15.0232  15.0232  15.0695  15.0695
    18.2284  18.2284  18.3978  18.3978  23.1270  23.1276

     occupation numbers 
     1.0000   1.0000   1.0000   1.0000   1.0000   1.0000   1.0000   1.0000
     1.0000   1.0000   1.0000   1.0000   1.0000   1.0000   1.0000   1.0000
     1.0000   1.0000   1.0000   1.0000   1.0000   1.0000   1.0000   1.0000
     1.0000   1.0000   1.0000   1.0000   1.0000   1.0000   1.0000   1.0000
     1.0000   1.0000   1.0000   1.0000   1.0000   1.0000   1.0000   1.0000
     1.0000   1.0000   1.0000   1.0000   1.0000   1.0000   1.0000   1.0000
     1.0000   1.0000   1.0000   1.0000   1.0000   1.0000   1.0000   1.0000
    -0.0000  -0.0000  -0.0000  -0.0000  -0.0000  -0.0000  -0.0000  -0.0000
    -0.0000  -0.0000  -0.0000  -0.0000  -0.0000  -0.0000

          k =-0.5000-0.5000 0.0000 (  5412 PWs)   bands (ev):

   -79.3664 -79.3664 -79.3664 -79.3664 -46.2050 -46.2050 -46.2050 -46.2050
   -32.7465 -32.7465 -32.7465 -32.7465 -32.5985 -32.5985 -32.5985 -32.5985
    -6.4275  -6.4275  -6.4275  -6.4275  -5.0530  -5.0530  -5.0530  -5.0530
     4.3945   4.3945   4.3945   4.3945   6.0042   6.0042   6.0042   6.0042
     8.7376   8.7376   8.7376   8.7376   8.7630   8.7630   8.7630   8.7630
     9.5783   9.5783   9.5783   9.5783  10.3460  10.3460  10.3460  10.3460
    11.1284  11.1284  11.1284  11.1284  11.7528  11.7528  11.7528  11.7528
    14.0588  14.0588  14.0588  14.0588  16.2389  16.2389  16.2389  16.2389
    17.9216  17.9216  17.9216  17.9216  22.7986  22.7990

     occupation numbers 
     1.0000   1.0000   1.0000   1.0000   1.0000   1.0000   1.0000   1.0000
     1.0000   1.0000   1.0000   1.0000   1.0000   1.0000   1.0000   1.0000
     1.0000   1.0000   1.0000   1.0000   1.0000   1.0000   1.0000   1.0000
     1.0000   1.0000   1.0000   1.0000   1.0000   1.0000   1.0000   1.0000
     1.0000   1.0000   1.0000   1.0000   1.0000   1.0000   1.0000   1.0000
     1.0000   1.0000   1.0000   1.0000   1.0000   1.0000   1.0000   1.0000
     1.0000   1.0000   1.0000   1.0000   1.0000   1.0000   1.0000   1.0000
    -0.0000  -0.0000  -0.0000  -0.0000  -0.0000  -0.0000  -0.0000  -0.0000
    -0.0000  -0.0000  -0.0000  -0.0000  -0.0000  -0.0000

          k =-0.5000-0.5000 0.1781 (  5404 PWs)   bands (ev):

   -79.3661 -79.3661 -79.3661 -79.3661 -46.2066 -46.2066 -46.2066 -46.2066
   -32.7537 -32.7537 -32.7537 -32.7537 -32.6018 -32.6018 -32.6018 -32.6018
    -6.3155  -6.3155  -6.3155  -6.3155  -5.1247  -5.1247  -5.1247  -5.1247
     4.5600   4.5600   4.5600   4.5600   6.0061   6.0061   6.0061   6.0061
     8.7592   8.7592   8.7592   8.7592   8.9456   8.9456   8.9456   8.9456
     9.0585   9.0585   9.0585   9.0585   9.9013   9.9013   9.9013   9.9013
    11.5426  11.5426  11.5426  11.5426  12.1257  12.1257  12.1257  12.1257
    13.8922  13.8922  13.8922  13.8922  16.4405  16.4405  16.4405  16.4405
    17.5680  17.5680  17.5680  17.5680  22.6424  22.6424

     occupation numbers 
     1.0000   1.0000   1.0000   1.0000   1.0000   1.0000   1.0000   1.0000
     1.0000   1.0000   1.0000   1.0000   1.0000   1.0000   1.0000   1.0000
     1.0000   1.0000   1.0000   1.0000   1.0000   1.0000   1.0000   1.0000
     1.0000   1.0000   1.0000   1.0000   1.0000   1.0000   1.0000   1.0000
     1.0000   1.0000   1.0000   1.0000   1.0000   1.0000   1.0000   1.0000
     1.0000   1.0000   1.0000   1.0000   1.0000   1.0000   1.0000   1.0000
     1.0000   1.0000   1.0000   1.0000   1.0000   1.0000   1.0000   1.0000
    -0.0304  -0.0304  -0.0304  -0.0304  -0.0000  -0.0000  -0.0000  -0.0000
    -0.0000  -0.0000  -0.0000  -0.0000  -0.0000  -0.0000

          k =-0.5000-0.5000 0.3562 (  5388 PWs)   bands (ev):

   -79.3652 -79.3652 -79.3652 -79.3652 -46.2106 -46.2106 -46.2106 -46.2106
   -32.7735 -32.7735 -32.7735 -32.7735 -32.6070 -32.6070 -32.6070 -32.6070
    -6.0377  -6.0377  -6.0377  -6.0377  -5.2924  -5.2924  -5.2924  -5.2924
     4.9956   4.9956   4.9956   4.9956   6.0583   6.0583   6.0583   6.0583
     7.8263   7.8263   7.8263   7.8263   8.8947   8.8947   8.8947   8.8947
     9.1824   9.1824   9.1824   9.1824   9.8781   9.8781   9.8781   9.8781
    11.9095  11.9095  11.9095  11.9095  12.6882  12.6882  12.6882  12.6882
    13.4843  13.4843  13.4843  13.4843  16.6060  16.6060  16.6060  16.6060
    17.0698  17.0698  17.0698  17.0698  22.9323  22.9323

     occupation numbers 
     1.0000   1.0000   1.0000   1.0000   1.0000   1.0000   1.0000   1.0000
     1.0000   1.0000   1.0000   1.0000   1.0000   1.0000   1.0000   1.0000
     1.0000   1.0000   1.0000   1.0000   1.0000   1.0000   1.0000   1.0000
     1.0000   1.0000   1.0000   1.0000   1.0000   1.0000   1.0000   1.0000
     1.0000   1.0000   1.0000   1.0000   1.0000   1.0000   1.0000   1.0000
     1.0000   1.0000   1.0000   1.0000   1.0000   1.0000   1.0000   1.0000
     1.0000   1.0000   1.0000   1.0000   1.0000   1.0000   1.0000   1.0000
     1.0000   1.0000   1.0000   1.0000  -0.0000  -0.0000  -0.0000  -0.0000
    -0.0000  -0.0000  -0.0000  -0.0000  -0.0000  -0.0000

          k =-0.5000-0.5000 0.5343 (  5360 PWs)   bands (ev):

   -79.3644 -79.3644 -79.3644 -79.3644 -46.2146 -46.2146 -46.2146 -46.2146
   -32.7961 -32.7961 -32.7961 -32.7961 -32.6093 -32.6093 -32.6093 -32.6093
    -5.7520  -5.7520  -5.7520  -5.7520  -5.4484  -5.4484  -5.4484  -5.4484
     5.4974   5.4974   5.4974   5.4974   6.1705   6.1705   6.1705   6.1705
     6.9772   6.9772   6.9772   6.9772   8.4517   8.4517   8.4517   8.4517
     9.4885   9.4885   9.4885   9.4885  10.4175  10.4175  10.4175  10.4175
    11.9761  11.9761  11.9761  11.9761  12.8029  12.8029  12.8029  12.8029
    13.3263  13.3263  13.3263  13.3263  16.2321  16.2321  16.2321  16.2321
    17.0555  17.0555  17.0555  17.0555  23.0875  23.0875

     occupation numbers 
     1.0000   1.0000   1.0000   1.0000   1.0000   1.0000   1.0000   1.0000
     1.0000   1.0000   1.0000   1.0000   1.0000   1.0000   1.0000   1.0000
     1.0000   1.0000   1.0000   1.0000   1.0000   1.0000   1.0000   1.0000
     1.0000   1.0000   1.0000   1.0000   1.0000   1.0000   1.0000   1.0000
     1.0000   1.0000   1.0000   1.0000   1.0000   1.0000   1.0000   1.0000
     1.0000   1.0000   1.0000   1.0000   1.0000   1.0000   1.0000   1.0000
     1.0000   1.0000   1.0000   1.0000   1.0000   1.0000   1.0000   1.0000
     1.0000   1.0000   1.0000   1.0000  -0.0000  -0.0000  -0.0000  -0.0000
    -0.0000  -0.0000  -0.0000  -0.0000  -0.0000  -0.0000

          k =-0.5000-0.5000-0.7124 (  5384 PWs)   bands (ev):

   -79.3641 -79.3641 -79.3641 -79.3641 -46.2162 -46.2162 -46.2162 -46.2162
   -32.8060 -32.8060 -32.8060 -32.8060 -32.6095 -32.6095 -32.6095 -32.6095
    -5.6438  -5.6438  -5.6438  -5.6438  -5.4969  -5.4969  -5.4969  -5.4969
     5.7338   5.7338   5.7338   5.7338   6.2304   6.2304   6.2304   6.2304
     6.6612   6.6612   6.6612   6.6612   8.2570   8.2570   8.2570   8.2570
     9.6577   9.6577   9.6577   9.6577  10.6508  10.6508  10.6508  10.6508
    11.9410  11.9410  11.9410  11.9410  12.6197  12.6197  12.6197  12.6197
    13.4459  13.4459  13.4459  13.4459  16.0751  16.0751  16.0751  16.0751
    17.0288  17.0288  17.0288  17.0288  23.0597  23.0597

     occupation numbers 
     1.0000   1.0000   1.0000   1.0000   1.0000   1.0000   1.0000   1.0000
     1.0000   1.0000   1.0000   1.0000   1.0000   1.0000   1.0000   1.0000
     1.0000   1.0000   1.0000   1.0000   1.0000   1.0000   1.0000   1.0000
     1.0000   1.0000   1.0000   1.0000   1.0000   1.0000   1.0000   1.0000
     1.0000   1.0000   1.0000   1.0000   1.0000   1.0000   1.0000   1.0000
     1.0000   1.0000   1.0000   1.0000   1.0000   1.0000   1.0000   1.0000
     1.0000   1.0000   1.0000   1.0000   1.0000   1.0000   1.0000   1.0000
     1.0000   1.0000   1.0000   1.0000  -0.0000  -0.0000  -0.0000  -0.0000
    -0.0000  -0.0000  -0.0000  -0.0000  -0.0000  -0.0000

     the Fermi energy is    13.8199 ev

!    total energy              =    -553.07471217 Ry
     estimated scf accuracy    <          6.2E-11 Ry
     smearing contrib. (-TS)   =       0.00004404 Ry
     internal energy E=F+TS    =    -553.07475621 Ry

     The total energy is F=E-TS. E is the sum of the following terms:
     one-electron contribution =    -190.90394234 Ry
     hartree contribution      =     122.72616720 Ry
     xc contribution           =     -69.91097056 Ry
     ewald contribution        =    -414.98601052 Ry

     convergence has been achieved in  10 iterations

     Forces acting on atoms (cartesian axes, Ry/au):

     atom    1 type  2   force =     0.00000000    0.00000000    0.00000000
     atom    2 type  2   force =     0.00000000    0.00000000    0.00000000
     atom    3 type  1   force =    -0.00157390    0.00157390    0.00000000
     atom    4 type  1   force =     0.00157390    0.00157390   -0.00000000
     atom    5 type  1   force =    -0.00157390   -0.00157390   -0.00000000
     atom    6 type  1   force =     0.00157390   -0.00157390    0.00000000
     The non-local contrib.  to forces
     atom    1 type  2   force =     0.00000000    0.00000000    0.00000000
     atom    2 type  2   force =     0.00000000    0.00000000    0.00000000
     atom    3 type  1   force =    -0.05238671    0.05238671    0.00000000
     atom    4 type  1   force =     0.05238671    0.05238671    0.00000000
     atom    5 type  1   force =    -0.05238671   -0.05238671    0.00000000
     atom    6 type  1   force =     0.05238671   -0.05238671    0.00000000
     The ionic contribution  to forces
     atom    1 type  2   force =    -0.00000000   -0.00000000    0.00000000
     atom    2 type  2   force =     0.00000000    0.00000000   -0.00000000
     atom    3 type  1   force =     1.42937233   -1.42937233    0.00000000
     atom    4 type  1   force =    -1.42937233   -1.42937233   -0.00000000
     atom    5 type  1   force =     1.42937233    1.42937233    0.00000000
     atom    6 type  1   force =    -1.42937233    1.42937233    0.00000000
     The local contribution  to forces
     atom    1 type  2   force =     0.00000000    0.00000000    0.00000000
     atom    2 type  2   force =     0.00000000    0.00000000    0.00000000
     atom    3 type  1   force =    -1.37855876    1.37855876    0.00000000
     atom    4 type  1   force =     1.37855876    1.37855876    0.00000000
     atom    5 type  1   force =    -1.37855876   -1.37855876    0.00000000
     atom    6 type  1   force =     1.37855876   -1.37855876    0.00000000
     The core correction contribution to forces
     atom    1 type  2   force =     0.00000000    0.00000000    0.00000000
     atom    2 type  2   force =     0.00000000    0.00000000    0.00000000
     atom    3 type  1   force =     0.00000000    0.00000000    0.00000000
     atom    4 type  1   force =     0.00000000    0.00000000    0.00000000
     atom    5 type  1   force =     0.00000000    0.00000000    0.00000000
     atom    6 type  1   force =     0.00000000    0.00000000    0.00000000
     The Hubbard contrib.    to forces
     atom    1 type  2   force =     0.00000000    0.00000000    0.00000000
     atom    2 type  2   force =     0.00000000    0.00000000    0.00000000
     atom    3 type  1   force =     0.00000000    0.00000000    0.00000000
     atom    4 type  1   force =     0.00000000    0.00000000    0.00000000
     atom    5 type  1   force =     0.00000000    0.00000000    0.00000000
     atom    6 type  1   force =     0.00000000    0.00000000    0.00000000
     The SCF correction term to forces
     atom    1 type  2   force =     0.00000000    0.00000000   -0.00000000
     atom    2 type  2   force =     0.00000000    0.00000000   -0.00000000
     atom    3 type  1   force =    -0.00000076    0.00000076    0.00000000
     atom    4 type  1   force =     0.00000076    0.00000076   -0.00000000
     atom    5 type  1   force =    -0.00000076   -0.00000076   -0.00000000
     atom    6 type  1   force =     0.00000076   -0.00000076    0.00000000

     Total force =     0.004452     Total SCF correction =     0.000002


     Computing stress (Cartesian axis) and pressure

          total   stress  (Ry/bohr**3)                   (kbar)     P=      -20.79
  -0.00010839   0.00000000   0.00000000          -15.94        0.00        0.00
   0.00000000  -0.00010839   0.00000000            0.00      -15.94        0.00
   0.00000000   0.00000000  -0.00020716            0.00        0.00      -30.47

     kinetic stress (kbar)  48477.09      0.00      0.00
                                0.00  48477.09      0.00
                                0.00      0.00  47479.12

     local   stress (kbar) -12721.24     -0.00     -0.00
                               -0.00 -12721.24      0.00
                               -0.00      0.00 -44332.09

     nonloc. stress (kbar)  14534.08      0.00      0.00
                                0.00  14534.08      0.00
                                0.00      0.00  14730.71

     hartree stress (kbar)   9617.99     -0.00     -0.00
                               -0.00   9617.99     -0.00
                               -0.00     -0.00  21362.57

     exc-cor stress (kbar)  -7287.65     -0.00      0.00
                               -0.00  -7287.65     -0.00
                                0.00     -0.00  -7263.33

     corecor stress (kbar)      0.00      0.00      0.00
                                0.00      0.00      0.00
                                0.00      0.00      0.00

     ewald   stress (kbar) -52636.21     -0.00     -0.00
                               -0.00 -52636.21     -0.00
                               -0.00     -0.00 -32007.45

     hubbard stress (kbar)      0.00      0.00      0.00
                                0.00      0.00      0.00
                                0.00      0.00      0.00

     DFT-D   stress (kbar)      0.00      0.00      0.00
                                0.00      0.00      0.00
                                0.00      0.00      0.00

     XDM     stress (kbar)      0.00      0.00      0.00
                                0.00      0.00      0.00
                                0.00      0.00      0.00

     dft-nl  stress (kbar)      0.00      0.00      0.00
                                0.00      0.00      0.00
                                0.00      0.00      0.00

     TS-vdW  stress (kbar)      0.00      0.00      0.00
                                0.00      0.00      0.00
                                0.00      0.00      0.00


                                0.00      0.00      0.00
                                0.00      0.00      0.00


                                0.00      0.00      0.00


     Writing all to output data dir tmp/espresso.save/
 
     init_run     :      1.55s CPU      0.83s WALL (       1 calls)
     electrons    :     50.34s CPU     25.80s WALL (       1 calls)
     forces       :      2.50s CPU      1.29s WALL (       1 calls)
     stress       :      3.73s CPU      1.88s WALL (       1 calls)

     Called by init_run:
     wfcinit      :      1.49s CPU      0.77s WALL (       1 calls)
     wfcinit:atom :      0.01s CPU      0.00s WALL (      15 calls)
     wfcinit:wfcr :      1.45s CPU      0.75s WALL (      15 calls)
     potinit      :      0.02s CPU      0.01s WALL (       1 calls)
     hinit0       :      0.03s CPU      0.03s WALL (       1 calls)

     Called by electrons:
     c_bands      :     45.93s CPU     23.52s WALL (      10 calls)
     sum_band     :      4.27s CPU      2.19s WALL (      10 calls)
     v_of_rho     :      0.05s CPU      0.03s WALL (      11 calls)
     v_h          :      0.01s CPU      0.00s WALL (      11 calls)
     v_xc         :      0.05s CPU      0.02s WALL (      11 calls)
     mix_rho      :      0.05s CPU      0.03s WALL (      10 calls)

     Called by c_bands:
     init_us_2    :      0.14s CPU      0.08s WALL (     345 calls)
     init_us_2:cp :      0.14s CPU      0.07s WALL (     345 calls)
     cegterg      :     42.27s CPU     21.66s WALL (     150 calls)

     Called by sum_band:
     sum_band:wei :      0.03s CPU      0.01s WALL (      10 calls)
     sum_band:loo :      4.22s CPU      2.16s WALL (      10 calls)
     sum_band:buf :      0.02s CPU      0.01s WALL (     150 calls)
     sum_band:ini :      0.05s CPU      0.02s WALL (     150 calls)

     Called by *egterg:
     cdiaghg      :      6.31s CPU      3.21s WALL (     512 calls)
     cegterg:over :      2.56s CPU      1.31s WALL (     362 calls)
     cegterg:upda :      2.03s CPU      1.03s WALL (     362 calls)
     cegterg:last :      3.61s CPU      1.84s WALL (     297 calls)
     cdiaghg:chol :      0.30s CPU      0.15s WALL (     512 calls)
     cdiaghg:inve :      0.05s CPU      0.02s WALL (     512 calls)
     cdiaghg:para :      0.65s CPU      0.33s WALL (    1024 calls)
     h_psi        :     28.12s CPU     14.46s WALL (     527 calls)
     g_psi        :      0.04s CPU      0.02s WALL (     362 calls)

     Called by h_psi:
     h_psi:calbec :      3.37s CPU      1.77s WALL (     527 calls)
     vloc_psi     :     19.75s CPU     10.14s WALL (     527 calls)
     add_vuspsi   :      4.93s CPU      2.52s WALL (     527 calls)

     General routines
     calbec       :      4.08s CPU      2.14s WALL (     602 calls)
     fft          :      0.06s CPU      0.03s WALL (     150 calls)
     ffts         :      0.01s CPU      0.01s WALL (      40 calls)
     fftw         :     22.44s CPU     11.52s WALL (  127100 calls)
 
     Parallel routines
 
     PWSCF        :     59.97s CPU     31.31s WALL

 
   This run was terminated on:  10:53:29  10Apr2022            

=------------------------------------------------------------------------------=
   JOB DONE.
=------------------------------------------------------------------------------=
