
     Program PWSCF v.7.0 starts on 10Apr2022 at 11:17:48 

     This program is part of the open-source Quantum ESPRESSO suite
     for quantum simulation of materials; please cite
         "P. Giannozzi et al., J. Phys.:Condens. Matter 21 395502 (2009);
         "P. Giannozzi et al., J. Phys.:Condens. Matter 29 465901 (2017);
         "P. Giannozzi et al., J. Chem. Phys. 152 154105 (2020);
          URL http://www.quantum-espresso.org", 
     in publications or presentations arising from this work. More details at
     http://www.quantum-espresso.org/quote

     Parallel version (MPI & OpenMP), running on      64 processor cores
     Number of MPI processes:                32
     Threads/MPI process:                     2

     MPI processes distributed on     1 nodes
     R & G space division:  proc/nbgrp/npool/nimage =      32
     230405 MiB available memory on the printing compute node when the environment starts
 
     Reading input from kpoints_779.pwi
Warning: card &CELL ignored
Warning: card / ignored

     Current dimensions of program PWSCF are:
     Max number of different atomic species (ntypx) = 10
     Max number of k-points (npk) =  40000
     Max angular momentum in pseudopotentials (lmaxx) =  4

     Subspace diagonalization in iterative solution of the eigenvalue problem:
     one sub-group per band group will be used
     scalapack distributed-memory algorithm (size of sub-group:  5*  5 procs)

 
     Parallelization info
     --------------------
     sticks:   dense  smooth     PW     G-vecs:    dense   smooth      PW
     Min          58      58     16                 1342     1342     205
     Max          59      59     18                 1345     1345     207
     Sum        1885    1885    545                42999    42999    6595
 
     Using Slab Decomposition
 

     Title: 
     IrO2 Unit Cell                                                             


     bravais-lattice index     =            6
     lattice parameter (alat)  =       8.5888  a.u.
     unit-cell volume          =     444.6868 (a.u.)^3
     number of atoms/cell      =            6
     number of atomic types    =            2
     number of electrons       =        58.00
     number of Kohn-Sham states=           70
     kinetic-energy cutoff     =      80.0000  Ry
     charge density cutoff     =     320.0000  Ry
     scf convergence threshold =      1.0E-09
     mixing beta               =       0.7000
     number of iterations used =            8  plain     mixing
     Exchange-correlation= PBE
                           (   1   4   3   4   0   0   0)
     Non magnetic calculation with spin-orbit


     celldm(1)=   8.588800  celldm(2)=   0.000000  celldm(3)=   0.701870
     celldm(4)=   0.000000  celldm(5)=   0.000000  celldm(6)=   0.000000

     crystal axes: (cart. coord. in units of alat)
               a(1) = (   1.000000   0.000000   0.000000 )  
               a(2) = (   0.000000   1.000000   0.000000 )  
               a(3) = (   0.000000   0.000000   0.701870 )  

     reciprocal axes: (cart. coord. in units 2 pi/alat)
               b(1) = (  1.000000  0.000000  0.000000 )  
               b(2) = (  0.000000  1.000000  0.000000 )  
               b(3) = (  0.000000  0.000000  1.424765 )  


     PseudoPot. # 1 for O  read from file:
     ../../XX_PSEUDO/O_ONCV_PBE_fr.upf
     MD5 check sum: 59c925217d3b58c6d762355590b68b09
     Pseudo is Norm-conserving, Zval =  6.0
     Generated using ONCVPSP code by D. R. Hamann
     Using radial grid of  936 points,  6 beta functions with: 
                l(1) =   0
                l(2) =   0
                l(3) =   1
                l(4) =   1
                l(5) =   1
                l(6) =   1

     PseudoPot. # 2 for Ir read from file:
     ../../XX_PSEUDO/Ir_ONCV_PBE_fr.upf
     MD5 check sum: 924e909c4146afa09f62ee3401806954
     Pseudo is Norm-conserving, Zval = 17.0
     Generated using ONCVPSP code by D. R. Hamann
     Using radial grid of 1310 points, 14 beta functions with: 
                l(1) =   0
                l(2) =   0
                l(3) =   1
                l(4) =   1
                l(5) =   1
                l(6) =   1
                l(7) =   2
                l(8) =   2
                l(9) =   2
               l(10) =   2
               l(11) =   3
               l(12) =   3
               l(13) =   3
               l(14) =   3

     atomic species   valence    mass     pseudopotential
        O              6.00    15.99900     O ( 1.00)
        Ir            17.00   192.21700     Ir( 1.00)

     16 Sym. Ops., with inversion, found ( 8 have fractional translation)


                                    s                        frac. trans.

      isym =  1     identity                                     

 cryst.   s( 1) = (     1          0          0      )
                  (     0          1          0      )
                  (     0          0          1      )

 cart.    s( 1) = (  1.0000000  0.0000000  0.0000000 )
                  (  0.0000000  1.0000000  0.0000000 )
                  (  0.0000000  0.0000000  1.0000000 )


      isym =  2     180 deg rotation - cart. axis [0,0,1]        

 cryst.   s( 2) = (    -1          0          0      )
                  (     0         -1          0      )
                  (     0          0          1      )

 cart.    s( 2) = ( -1.0000000  0.0000000  0.0000000 )
                  (  0.0000000 -1.0000000  0.0000000 )
                  (  0.0000000  0.0000000  1.0000000 )


      isym =  3     180 deg rotation - cart. axis [0,1,0]        

 cryst.   s( 3) = (    -1          0          0      )    f =(  0.5000000 )
                  (     0          1          0      )       ( -0.5000000 )
                  (     0          0         -1      )       (  0.5000000 )

 cart.    s( 3) = ( -1.0000000  0.0000000  0.0000000 )    f =(  0.5000000 )
                  (  0.0000000  1.0000000  0.0000000 )       ( -0.5000000 )
                  (  0.0000000  0.0000000 -1.0000000 )       (  0.3509351 )


      isym =  4     180 deg rotation - cart. axis [1,0,0]        

 cryst.   s( 4) = (     1          0          0      )    f =( -0.5000000 )
                  (     0         -1          0      )       (  0.5000000 )
                  (     0          0         -1      )       (  0.5000000 )

 cart.    s( 4) = (  1.0000000  0.0000000  0.0000000 )    f =( -0.5000000 )
                  (  0.0000000 -1.0000000  0.0000000 )       (  0.5000000 )
                  (  0.0000000  0.0000000 -1.0000000 )       (  0.3509351 )


      isym =  5     180 deg rotation - cart. axis [1,1,0]        

 cryst.   s( 5) = (     0          1          0      )
                  (     1          0          0      )
                  (     0          0         -1      )

 cart.    s( 5) = (  0.0000000  1.0000000  0.0000000 )
                  (  1.0000000  0.0000000  0.0000000 )
                  (  0.0000000  0.0000000 -1.0000000 )


      isym =  6     180 deg rotation - cart. axis [1,-1,0]       

 cryst.   s( 6) = (     0         -1          0      )
                  (    -1          0          0      )
                  (     0          0         -1      )

 cart.    s( 6) = (  0.0000000 -1.0000000  0.0000000 )
                  ( -1.0000000  0.0000000  0.0000000 )
                  (  0.0000000  0.0000000 -1.0000000 )


      isym =  7      90 deg rotation - cart. axis [0,0,-1]       

 cryst.   s( 7) = (     0         -1          0      )    f =( -0.5000000 )
                  (     1          0          0      )       (  0.5000000 )
                  (     0          0          1      )       ( -0.5000000 )

 cart.    s( 7) = (  0.0000000  1.0000000  0.0000000 )    f =( -0.5000000 )
                  ( -1.0000000  0.0000000  0.0000000 )       (  0.5000000 )
                  (  0.0000000  0.0000000  1.0000000 )       ( -0.3509351 )


      isym =  8      90 deg rotation - cart. axis [0,0,1]        

 cryst.   s( 8) = (     0          1          0      )    f =(  0.5000000 )
                  (    -1          0          0      )       ( -0.5000000 )
                  (     0          0          1      )       ( -0.5000000 )

 cart.    s( 8) = (  0.0000000 -1.0000000  0.0000000 )    f =(  0.5000000 )
                  (  1.0000000  0.0000000  0.0000000 )       ( -0.5000000 )
                  (  0.0000000  0.0000000  1.0000000 )       ( -0.3509351 )


      isym =  9     inversion                                    

 cryst.   s( 9) = (    -1          0          0      )
                  (     0         -1          0      )
                  (     0          0         -1      )

 cart.    s( 9) = ( -1.0000000  0.0000000  0.0000000 )
                  (  0.0000000 -1.0000000  0.0000000 )
                  (  0.0000000  0.0000000 -1.0000000 )


      isym = 10     inv. 180 deg rotation - cart. axis [0,0,1]   

 cryst.   s(10) = (     1          0          0      )
                  (     0          1          0      )
                  (     0          0         -1      )

 cart.    s(10) = (  1.0000000  0.0000000  0.0000000 )
                  (  0.0000000  1.0000000  0.0000000 )
                  (  0.0000000  0.0000000 -1.0000000 )


      isym = 11     inv. 180 deg rotation - cart. axis [0,1,0]   

 cryst.   s(11) = (     1          0          0      )    f =( -0.5000000 )
                  (     0         -1          0      )       (  0.5000000 )
                  (     0          0          1      )       ( -0.5000000 )

 cart.    s(11) = (  1.0000000  0.0000000  0.0000000 )    f =( -0.5000000 )
                  (  0.0000000 -1.0000000  0.0000000 )       (  0.5000000 )
                  (  0.0000000  0.0000000  1.0000000 )       ( -0.3509351 )


      isym = 12     inv. 180 deg rotation - cart. axis [1,0,0]   

 cryst.   s(12) = (    -1          0          0      )    f =(  0.5000000 )
                  (     0          1          0      )       ( -0.5000000 )
                  (     0          0          1      )       ( -0.5000000 )

 cart.    s(12) = ( -1.0000000  0.0000000  0.0000000 )    f =(  0.5000000 )
                  (  0.0000000  1.0000000  0.0000000 )       ( -0.5000000 )
                  (  0.0000000  0.0000000  1.0000000 )       ( -0.3509351 )


      isym = 13     inv. 180 deg rotation - cart. axis [1,1,0]   

 cryst.   s(13) = (     0         -1          0      )
                  (    -1          0          0      )
                  (     0          0          1      )

 cart.    s(13) = (  0.0000000 -1.0000000  0.0000000 )
                  ( -1.0000000  0.0000000  0.0000000 )
                  (  0.0000000  0.0000000  1.0000000 )


      isym = 14     inv. 180 deg rotation - cart. axis [1,-1,0]  

 cryst.   s(14) = (     0          1          0      )
                  (     1          0          0      )
                  (     0          0          1      )

 cart.    s(14) = (  0.0000000  1.0000000  0.0000000 )
                  (  1.0000000  0.0000000  0.0000000 )
                  (  0.0000000  0.0000000  1.0000000 )


      isym = 15     inv.  90 deg rotation - cart. axis [0,0,-1]  

 cryst.   s(15) = (     0          1          0      )    f =(  0.5000000 )
                  (    -1          0          0      )       ( -0.5000000 )
                  (     0          0         -1      )       (  0.5000000 )

 cart.    s(15) = (  0.0000000 -1.0000000  0.0000000 )    f =(  0.5000000 )
                  (  1.0000000  0.0000000  0.0000000 )       ( -0.5000000 )
                  (  0.0000000  0.0000000 -1.0000000 )       (  0.3509351 )


      isym = 16     inv.  90 deg rotation - cart. axis [0,0,1]   

 cryst.   s(16) = (     0         -1          0      )    f =( -0.5000000 )
                  (     1          0          0      )       (  0.5000000 )
                  (     0          0         -1      )       (  0.5000000 )

 cart.    s(16) = (  0.0000000  1.0000000  0.0000000 )    f =( -0.5000000 )
                  ( -1.0000000  0.0000000  0.0000000 )       (  0.5000000 )
                  (  0.0000000  0.0000000 -1.0000000 )       (  0.3509351 )


     double point group D_4h(4/mmm)
     there are 14 classes and  4 irreducible representations
     the character table:

       E     -E    2C4   -2C4   C2    2C2' 2C2'' i     -i    2S4   -2S4   s_h 
                               -C2   -2C2' -2C2'                         -s_h 
G_6+   2.00 -2.00  1.41 -1.41  0.00  0.00  0.00  2.00 -2.00  1.41 -1.41  0.00
G_7+   2.00 -2.00 -1.41  1.41  0.00  0.00  0.00  2.00 -2.00 -1.41  1.41  0.00
G_6-   2.00 -2.00  1.41 -1.41  0.00  0.00  0.00 -2.00  2.00 -1.41  1.41  0.00
G_7-   2.00 -2.00 -1.41  1.41  0.00  0.00  0.00 -2.00  2.00  1.41 -1.41  0.00

        2s_v  2s_d
       -2s_v -2s_d
G_6+   0.00  0.00
G_7+   0.00  0.00
G_6-   0.00  0.00
G_7-   0.00  0.00

     the symmetry operations in each class and the name of the first element:

     E             1
          identity                                               
     -E           -1
          identity E                                             
     2C4           7    8
           90 deg rotation - cart. axis [0,0,-1]                 
     -2C4         -7   -8
           90 deg rotation - cart. axis [0,0,-1] E               
      C2  -C2      2   -2
          180 deg rotation - cart. axis [0,0,1]                  
      2C2'-2C2'    3   -3    4   -4
          180 deg rotation - cart. axis [0,1,0]                  
     2C2''-2C2'    5   -5   -6    6
          180 deg rotation - cart. axis [1,1,0]                  
     i             9
          inversion                                              
     -i           -9
          inversion E                                            
     2S4          15   16
          inv.  90 deg rotation - cart. axis [0,0,-1]            
     -2S4        -15  -16
          inv.  90 deg rotation - cart. axis [0,0,-1] E          
      s_h -s_h    10  -10
          inv. 180 deg rotation - cart. axis [0,0,1]             
      2s_v-2s_v   11  -11   12  -12
          inv. 180 deg rotation - cart. axis [0,1,0]             
      2s_d-2s_d   13  -13  -14   14
          inv. 180 deg rotation - cart. axis [1,1,0]             

   Cartesian axes

     site n.     atom                  positions (alat units)
         1           Ir  tau(   1) = (   0.0000000   0.0000000   0.0000000  )
         2           Ir  tau(   2) = (   0.5000000   0.5000000   0.3509351  )
         3           O   tau(   3) = (   0.1916000   0.8084000   0.3509351  )
         4           O   tau(   4) = (   0.3084000   0.3084000   0.0000000  )
         5           O   tau(   5) = (   0.6916000   0.6916000   0.0000000  )
         6           O   tau(   6) = (   0.8084000   0.1916000   0.3509351  )

   Crystallographic axes

     site n.     atom                  positions (cryst. coord.)
         1           Ir  tau(   1) = (  0.0000000  0.0000000  0.0000000  )
         2           Ir  tau(   2) = (  0.5000000  0.5000000  0.5000000  )
         3           O   tau(   3) = (  0.1916000  0.8084000  0.5000000  )
         4           O   tau(   4) = (  0.3084000  0.3084000  0.0000000  )
         5           O   tau(   5) = (  0.6916000  0.6916000  0.0000000  )
         6           O   tau(   6) = (  0.8084000  0.1916000  0.5000000  )

     number of k points=    50  Methfessel-Paxton smearing, width (Ry)=  0.0050
                       cart. coord. in units 2pi/alat
        k(    1) = (   0.0000000   0.0000000   0.0000000), wk =   0.0022676
        k(    2) = (   0.0000000   0.0000000   0.1583072), wk =   0.0045351
        k(    3) = (   0.0000000   0.0000000   0.3166144), wk =   0.0045351
        k(    4) = (   0.0000000   0.0000000   0.4749216), wk =   0.0045351
        k(    5) = (   0.0000000   0.0000000   0.6332288), wk =   0.0045351
        k(    6) = (   0.0000000   0.1428571   0.0000000), wk =   0.0090703
        k(    7) = (   0.0000000   0.1428571   0.1583072), wk =   0.0181406
        k(    8) = (   0.0000000   0.1428571   0.3166144), wk =   0.0181406
        k(    9) = (   0.0000000   0.1428571   0.4749216), wk =   0.0181406
        k(   10) = (   0.0000000   0.1428571   0.6332288), wk =   0.0181406
        k(   11) = (   0.0000000   0.2857143   0.0000000), wk =   0.0090703
        k(   12) = (   0.0000000   0.2857143   0.1583072), wk =   0.0181406
        k(   13) = (   0.0000000   0.2857143   0.3166144), wk =   0.0181406
        k(   14) = (   0.0000000   0.2857143   0.4749216), wk =   0.0181406
        k(   15) = (   0.0000000   0.2857143   0.6332288), wk =   0.0181406
        k(   16) = (   0.0000000   0.4285714   0.0000000), wk =   0.0090703
        k(   17) = (   0.0000000   0.4285714   0.1583072), wk =   0.0181406
        k(   18) = (   0.0000000   0.4285714   0.3166144), wk =   0.0181406
        k(   19) = (   0.0000000   0.4285714   0.4749216), wk =   0.0181406
        k(   20) = (   0.0000000   0.4285714   0.6332288), wk =   0.0181406
        k(   21) = (   0.1428571   0.1428571   0.0000000), wk =   0.0090703
        k(   22) = (   0.1428571   0.1428571   0.1583072), wk =   0.0181406
        k(   23) = (   0.1428571   0.1428571   0.3166144), wk =   0.0181406
        k(   24) = (   0.1428571   0.1428571   0.4749216), wk =   0.0181406
        k(   25) = (   0.1428571   0.1428571   0.6332288), wk =   0.0181406
        k(   26) = (   0.1428571   0.2857143   0.0000000), wk =   0.0181406
        k(   27) = (   0.1428571   0.2857143   0.1583072), wk =   0.0362812
        k(   28) = (   0.1428571   0.2857143   0.3166144), wk =   0.0362812
        k(   29) = (   0.1428571   0.2857143   0.4749216), wk =   0.0362812
        k(   30) = (   0.1428571   0.2857143   0.6332288), wk =   0.0362812
        k(   31) = (   0.1428571   0.4285714   0.0000000), wk =   0.0181406
        k(   32) = (   0.1428571   0.4285714   0.1583072), wk =   0.0362812
        k(   33) = (   0.1428571   0.4285714   0.3166144), wk =   0.0362812
        k(   34) = (   0.1428571   0.4285714   0.4749216), wk =   0.0362812
        k(   35) = (   0.1428571   0.4285714   0.6332288), wk =   0.0362812
        k(   36) = (   0.2857143   0.2857143   0.0000000), wk =   0.0090703
        k(   37) = (   0.2857143   0.2857143   0.1583072), wk =   0.0181406
        k(   38) = (   0.2857143   0.2857143   0.3166144), wk =   0.0181406
        k(   39) = (   0.2857143   0.2857143   0.4749216), wk =   0.0181406
        k(   40) = (   0.2857143   0.2857143   0.6332288), wk =   0.0181406
        k(   41) = (   0.2857143   0.4285714   0.0000000), wk =   0.0181406
        k(   42) = (   0.2857143   0.4285714   0.1583072), wk =   0.0362812
        k(   43) = (   0.2857143   0.4285714   0.3166144), wk =   0.0362812
        k(   44) = (   0.2857143   0.4285714   0.4749216), wk =   0.0362812
        k(   45) = (   0.2857143   0.4285714   0.6332288), wk =   0.0362812
        k(   46) = (   0.4285714   0.4285714   0.0000000), wk =   0.0090703
        k(   47) = (   0.4285714   0.4285714   0.1583072), wk =   0.0181406
        k(   48) = (   0.4285714   0.4285714   0.3166144), wk =   0.0181406
        k(   49) = (   0.4285714   0.4285714   0.4749216), wk =   0.0181406
        k(   50) = (   0.4285714   0.4285714   0.6332288), wk =   0.0181406

                       cryst. coord.
        k(    1) = (   0.0000000   0.0000000   0.0000000), wk =   0.0022676
        k(    2) = (   0.0000000   0.0000000   0.1111111), wk =   0.0045351
        k(    3) = (   0.0000000   0.0000000   0.2222222), wk =   0.0045351
        k(    4) = (   0.0000000   0.0000000   0.3333333), wk =   0.0045351
        k(    5) = (   0.0000000   0.0000000   0.4444444), wk =   0.0045351
        k(    6) = (   0.0000000   0.1428571   0.0000000), wk =   0.0090703
        k(    7) = (   0.0000000   0.1428571   0.1111111), wk =   0.0181406
        k(    8) = (   0.0000000   0.1428571   0.2222222), wk =   0.0181406
        k(    9) = (   0.0000000   0.1428571   0.3333333), wk =   0.0181406
        k(   10) = (   0.0000000   0.1428571   0.4444444), wk =   0.0181406
        k(   11) = (   0.0000000   0.2857143   0.0000000), wk =   0.0090703
        k(   12) = (   0.0000000   0.2857143   0.1111111), wk =   0.0181406
        k(   13) = (   0.0000000   0.2857143   0.2222222), wk =   0.0181406
        k(   14) = (   0.0000000   0.2857143   0.3333333), wk =   0.0181406
        k(   15) = (   0.0000000   0.2857143   0.4444444), wk =   0.0181406
        k(   16) = (   0.0000000   0.4285714   0.0000000), wk =   0.0090703
        k(   17) = (   0.0000000   0.4285714   0.1111111), wk =   0.0181406
        k(   18) = (   0.0000000   0.4285714   0.2222222), wk =   0.0181406
        k(   19) = (   0.0000000   0.4285714   0.3333333), wk =   0.0181406
        k(   20) = (   0.0000000   0.4285714   0.4444444), wk =   0.0181406
        k(   21) = (   0.1428571   0.1428571   0.0000000), wk =   0.0090703
        k(   22) = (   0.1428571   0.1428571   0.1111111), wk =   0.0181406
        k(   23) = (   0.1428571   0.1428571   0.2222222), wk =   0.0181406
        k(   24) = (   0.1428571   0.1428571   0.3333333), wk =   0.0181406
        k(   25) = (   0.1428571   0.1428571   0.4444444), wk =   0.0181406
        k(   26) = (   0.1428571   0.2857143   0.0000000), wk =   0.0181406
        k(   27) = (   0.1428571   0.2857143   0.1111111), wk =   0.0362812
        k(   28) = (   0.1428571   0.2857143   0.2222222), wk =   0.0362812
        k(   29) = (   0.1428571   0.2857143   0.3333333), wk =   0.0362812
        k(   30) = (   0.1428571   0.2857143   0.4444444), wk =   0.0362812
        k(   31) = (   0.1428571   0.4285714   0.0000000), wk =   0.0181406
        k(   32) = (   0.1428571   0.4285714   0.1111111), wk =   0.0362812
        k(   33) = (   0.1428571   0.4285714   0.2222222), wk =   0.0362812
        k(   34) = (   0.1428571   0.4285714   0.3333333), wk =   0.0362812
        k(   35) = (   0.1428571   0.4285714   0.4444444), wk =   0.0362812
        k(   36) = (   0.2857143   0.2857143   0.0000000), wk =   0.0090703
        k(   37) = (   0.2857143   0.2857143   0.1111111), wk =   0.0181406
        k(   38) = (   0.2857143   0.2857143   0.2222222), wk =   0.0181406
        k(   39) = (   0.2857143   0.2857143   0.3333333), wk =   0.0181406
        k(   40) = (   0.2857143   0.2857143   0.4444444), wk =   0.0181406
        k(   41) = (   0.2857143   0.4285714   0.0000000), wk =   0.0181406
        k(   42) = (   0.2857143   0.4285714   0.1111111), wk =   0.0362812
        k(   43) = (   0.2857143   0.4285714   0.2222222), wk =   0.0362812
        k(   44) = (   0.2857143   0.4285714   0.3333333), wk =   0.0362812
        k(   45) = (   0.2857143   0.4285714   0.4444444), wk =   0.0362812
        k(   46) = (   0.4285714   0.4285714   0.0000000), wk =   0.0090703
        k(   47) = (   0.4285714   0.4285714   0.1111111), wk =   0.0181406
        k(   48) = (   0.4285714   0.4285714   0.2222222), wk =   0.0181406
        k(   49) = (   0.4285714   0.4285714   0.3333333), wk =   0.0181406
        k(   50) = (   0.4285714   0.4285714   0.4444444), wk =   0.0181406

     Dense  grid:    42999 G-vectors     FFT dimensions: (  50,  50,  36)

     Dynamical RAM for                 wfc:       0.36 MB

     Dynamical RAM for     wfc (w. buffer):      18.19 MB

     Dynamical RAM for           str. fact:       0.04 MB

     Dynamical RAM for           local pot:       0.00 MB

     Dynamical RAM for          nlocal pot:       0.46 MB

     Dynamical RAM for                qrad:      20.10 MB

     Dynamical RAM for          rho,v,vnew:       0.70 MB

     Dynamical RAM for               rhoin:       0.23 MB

     Dynamical RAM for            rho*nmix:       1.31 MB

     Dynamical RAM for           G-vectors:       0.09 MB

     Dynamical RAM for          h,s,v(r/c):       0.04 MB

     Dynamical RAM for          <psi|beta>:       0.38 MB

     Dynamical RAM for                 psi:       0.71 MB

     Dynamical RAM for                hpsi:       0.71 MB

     Dynamical RAM for      wfcinit/wfcrot:       0.67 MB

     Estimated static dynamical RAM per process >      40.18 MB

     Estimated max dynamical RAM per process >      43.35 MB

     Estimated total dynamical RAM >       1.35 GB

     Initial potential from superposition of free atoms

     starting charge      57.9997, renormalised to      58.0000
     Starting wfcs are   72 randomized atomic wfcs

     total cpu time spent up to now is        2.7 secs

     Self-consistent Calculation

     iteration #  1     ecut=    80.00 Ry     beta= 0.70
     Davidson diagonalization with overlap

---- Real-time Memory Report at c_bands before calling an iterative solver
            94 MiB given to the printing process from OS
             0 MiB allocation reported by mallinfo(arena+hblkhd)
        228501 MiB available memory on the node where the printing process lives
------------------
     ethr =  1.00E-02,  avg # of iterations =  2.6

     total cpu time spent up to now is       11.3 secs

     total energy              =    -552.42737419 Ry
     estimated scf accuracy    <       1.21403751 Ry

     iteration #  2     ecut=    80.00 Ry     beta= 0.70
     Davidson diagonalization with overlap

---- Real-time Memory Report at c_bands before calling an iterative solver
           100 MiB given to the printing process from OS
             0 MiB allocation reported by mallinfo(arena+hblkhd)
        228348 MiB available memory on the node where the printing process lives
------------------
     ethr =  2.09E-03,  avg # of iterations =  2.0

     total cpu time spent up to now is       20.7 secs

     total energy              =    -552.28815577 Ry
     estimated scf accuracy    <       4.26009133 Ry

     iteration #  3     ecut=    80.00 Ry     beta= 0.70
     Davidson diagonalization with overlap

---- Real-time Memory Report at c_bands before calling an iterative solver
           103 MiB given to the printing process from OS
             0 MiB allocation reported by mallinfo(arena+hblkhd)
        228287 MiB available memory on the node where the printing process lives
------------------
     ethr =  2.09E-03,  avg # of iterations =  2.0

     total cpu time spent up to now is       29.5 secs

     total energy              =    -553.07589344 Ry
     estimated scf accuracy    <       0.03332124 Ry

     iteration #  4     ecut=    80.00 Ry     beta= 0.70
     Davidson diagonalization with overlap

---- Real-time Memory Report at c_bands before calling an iterative solver
           104 MiB given to the printing process from OS
             0 MiB allocation reported by mallinfo(arena+hblkhd)
        228279 MiB available memory on the node where the printing process lives
------------------
     ethr =  5.75E-05,  avg # of iterations =  2.5

     total cpu time spent up to now is       38.4 secs

     total energy              =    -553.07950101 Ry
     estimated scf accuracy    <       0.00473341 Ry

     iteration #  5     ecut=    80.00 Ry     beta= 0.70
     Davidson diagonalization with overlap

---- Real-time Memory Report at c_bands before calling an iterative solver
           105 MiB given to the printing process from OS
             0 MiB allocation reported by mallinfo(arena+hblkhd)
        228276 MiB available memory on the node where the printing process lives
------------------
     ethr =  8.16E-06,  avg # of iterations =  2.1

     total cpu time spent up to now is       46.2 secs

     total energy              =    -553.08031766 Ry
     estimated scf accuracy    <       0.00024199 Ry

     iteration #  6     ecut=    80.00 Ry     beta= 0.70
     Davidson diagonalization with overlap

---- Real-time Memory Report at c_bands before calling an iterative solver
           105 MiB given to the printing process from OS
             0 MiB allocation reported by mallinfo(arena+hblkhd)
        228269 MiB available memory on the node where the printing process lives
------------------
     ethr =  4.17E-07,  avg # of iterations =  2.4

     total cpu time spent up to now is       54.2 secs

     total energy              =    -553.08035020 Ry
     estimated scf accuracy    <       0.00000822 Ry

     iteration #  7     ecut=    80.00 Ry     beta= 0.70
     Davidson diagonalization with overlap

---- Real-time Memory Report at c_bands before calling an iterative solver
           105 MiB given to the printing process from OS
             0 MiB allocation reported by mallinfo(arena+hblkhd)
        228266 MiB available memory on the node where the printing process lives
------------------
     ethr =  1.42E-08,  avg # of iterations =  2.0

     total cpu time spent up to now is       63.5 secs

     total energy              =    -553.08035305 Ry
     estimated scf accuracy    <       0.00000051 Ry

     iteration #  8     ecut=    80.00 Ry     beta= 0.70
     Davidson diagonalization with overlap

---- Real-time Memory Report at c_bands before calling an iterative solver
           107 MiB given to the printing process from OS
             0 MiB allocation reported by mallinfo(arena+hblkhd)
        228204 MiB available memory on the node where the printing process lives
------------------
     ethr =  8.86E-10,  avg # of iterations =  2.1

     total cpu time spent up to now is       71.3 secs

     total energy              =    -553.08035308 Ry
     estimated scf accuracy    <       0.00000007 Ry

     iteration #  9     ecut=    80.00 Ry     beta= 0.70
     Davidson diagonalization with overlap

---- Real-time Memory Report at c_bands before calling an iterative solver
           107 MiB given to the printing process from OS
             0 MiB allocation reported by mallinfo(arena+hblkhd)
        228207 MiB available memory on the node where the printing process lives
------------------
     ethr =  1.15E-10,  avg # of iterations =  2.0

     total cpu time spent up to now is       79.9 secs

     total energy              =    -553.08035309 Ry
     estimated scf accuracy    <          3.8E-09 Ry

     iteration # 10     ecut=    80.00 Ry     beta= 0.70
     Davidson diagonalization with overlap

---- Real-time Memory Report at c_bands before calling an iterative solver
           107 MiB given to the printing process from OS
             0 MiB allocation reported by mallinfo(arena+hblkhd)
        228196 MiB available memory on the node where the printing process lives
------------------
     ethr =  6.61E-12,  avg # of iterations =  2.1

     total cpu time spent up to now is       88.7 secs

     End of self-consistent calculation

          k = 0.0000 0.0000 0.0000 (  5409 PWs)   bands (ev):

   -79.3855 -79.3855 -79.3842 -79.3842 -46.2280 -46.2280 -46.2173 -46.2173
   -32.7661 -32.7661 -32.7539 -32.7539 -32.6245 -32.6245 -32.6117 -32.6117
    -7.0722  -7.0722  -5.9162  -5.9162  -5.0012  -5.0012  -4.7998  -4.7998
     4.2704   4.2704   4.5180   4.5180   6.0335   6.0335   6.1450   6.1450
     6.2582   6.2582   8.7877   8.7877   8.9400   8.9400   9.1977   9.1977
    10.3350  10.3350  10.9908  10.9908  10.9922  10.9922  11.0333  11.0333
    11.2013  11.2013  11.3810  11.3810  11.6492  11.6492  11.6745  11.6745
    12.0573  12.0573  14.6445  14.6445  15.0692  15.0692  17.6890  17.6890
    17.8977  17.8977  18.0462  18.0462  19.4498  19.4498

     occupation numbers 
     1.0000   1.0000   1.0000   1.0000   1.0000   1.0000   1.0000   1.0000
     1.0000   1.0000   1.0000   1.0000   1.0000   1.0000   1.0000   1.0000
     1.0000   1.0000   1.0000   1.0000   1.0000   1.0000   1.0000   1.0000
     1.0000   1.0000   1.0000   1.0000   1.0000   1.0000   1.0000   1.0000
     1.0000   1.0000   1.0000   1.0000   1.0000   1.0000   1.0000   1.0000
     1.0000   1.0000   1.0000   1.0000   1.0000   1.0000   1.0000   1.0000
     1.0000   1.0000   1.0000   1.0000   1.0000   1.0000   1.0000   1.0000
     1.0000   1.0000  -0.0000  -0.0000  -0.0000  -0.0000  -0.0000  -0.0000
    -0.0000  -0.0000  -0.0000  -0.0000  -0.0000  -0.0000

          k = 0.0000 0.0000 0.1583 (  5361 PWs)   bands (ev):

   -79.3852 -79.3852 -79.3840 -79.3840 -46.2290 -46.2290 -46.2189 -46.2189
   -32.7685 -32.7685 -32.7605 -32.7605 -32.6298 -32.6298 -32.6142 -32.6142
    -6.9599  -6.9599  -5.8576  -5.8576  -5.0540  -5.0540  -4.8705  -4.8705
     4.4339   4.4339   4.6362   4.6362   6.1315   6.1315   6.2126   6.2126
     6.3772   6.3772   8.3494   8.3494   9.0299   9.0299   9.2844   9.2844
     9.6577   9.6577  10.2194  10.2194  10.3351  10.3351  11.3341  11.3341
    11.5914  11.5914  11.6112  11.6112  11.6927  11.6927  12.2631  12.2631
    12.3744  12.3744  14.9084  14.9084  14.9530  14.9530  17.3969  17.3969
    17.7173  17.7173  18.2277  18.2277  19.2246  19.2246

     occupation numbers 
     1.0000   1.0000   1.0000   1.0000   1.0000   1.0000   1.0000   1.0000
     1.0000   1.0000   1.0000   1.0000   1.0000   1.0000   1.0000   1.0000
     1.0000   1.0000   1.0000   1.0000   1.0000   1.0000   1.0000   1.0000
     1.0000   1.0000   1.0000   1.0000   1.0000   1.0000   1.0000   1.0000
     1.0000   1.0000   1.0000   1.0000   1.0000   1.0000   1.0000   1.0000
     1.0000   1.0000   1.0000   1.0000   1.0000   1.0000   1.0000   1.0000
     1.0000   1.0000   1.0000   1.0000   1.0000   1.0000   1.0000   1.0000
     1.0000   1.0000  -0.0000  -0.0000  -0.0000  -0.0000  -0.0000  -0.0000
    -0.0000  -0.0000  -0.0000  -0.0000  -0.0000  -0.0000

          k = 0.0000 0.0000 0.3166 (  5381 PWs)   bands (ev):

   -79.3844 -79.3844 -79.3834 -79.3834 -46.2313 -46.2313 -46.2231 -46.2231
   -32.7779 -32.7779 -32.7777 -32.7777 -32.6395 -32.6395 -32.6199 -32.6199
    -6.6546  -6.6546  -5.7233  -5.7233  -5.1813  -5.1813  -5.0459  -5.0459
     4.8906   4.8906   4.9500   4.9500   6.3900   6.3900   6.4057   6.4057
     6.7326   6.7326   7.4668   7.4668   8.5376   8.5376   9.2526   9.2526
     9.3617   9.3617   9.5319   9.5319   9.7365   9.7365  10.7773  10.7773
    11.7805  11.7805  11.8682  11.8682  12.0979  12.0979  13.0179  13.0179
    13.0377  13.0377  14.6254  14.6254  15.4959  15.4959  16.8018  16.8018
    17.0977  17.0977  18.1992  18.1992  19.5595  19.5595

     occupation numbers 
     1.0000   1.0000   1.0000   1.0000   1.0000   1.0000   1.0000   1.0000
     1.0000   1.0000   1.0000   1.0000   1.0000   1.0000   1.0000   1.0000
     1.0000   1.0000   1.0000   1.0000   1.0000   1.0000   1.0000   1.0000
     1.0000   1.0000   1.0000   1.0000   1.0000   1.0000   1.0000   1.0000
     1.0000   1.0000   1.0000   1.0000   1.0000   1.0000   1.0000   1.0000
     1.0000   1.0000   1.0000   1.0000   1.0000   1.0000   1.0000   1.0000
     1.0000   1.0000   1.0000   1.0000   1.0000   1.0000   1.0000   1.0000
     1.0000   1.0000  -0.0000  -0.0000  -0.0000  -0.0000  -0.0000  -0.0000
    -0.0000  -0.0000  -0.0000  -0.0000  -0.0000  -0.0000

          k = 0.0000 0.0000 0.4749 (  5385 PWs)   bands (ev):

   -79.3835 -79.3835 -79.3828 -79.3828 -46.2337 -46.2337 -46.2283 -46.2283
   -32.7985 -32.7985 -32.7943 -32.7943 -32.6434 -32.6434 -32.6264 -32.6264
    -6.2462  -6.2462  -5.6199  -5.6199  -5.3110  -5.3110  -5.2421  -5.2421
     5.3338   5.3338   5.5071   5.5071   6.5571   6.5571   6.7277   6.7277
     6.8449   6.8449   7.3053   7.3053   7.6377   7.6377   8.6724   8.6724
     8.8268   8.8268   9.6619   9.6619   9.9079   9.9079   9.9386   9.9386
    11.7956  11.7956  12.1861  12.1861  12.2718  12.2718  13.5546  13.5546
    13.6475  13.6475  14.1920  14.1920  15.9767  15.9767  16.3332  16.3332
    16.6283  16.6283  17.3647  17.3647  20.8855  20.8855

     occupation numbers 
     1.0000   1.0000   1.0000   1.0000   1.0000   1.0000   1.0000   1.0000
     1.0000   1.0000   1.0000   1.0000   1.0000   1.0000   1.0000   1.0000
     1.0000   1.0000   1.0000   1.0000   1.0000   1.0000   1.0000   1.0000
     1.0000   1.0000   1.0000   1.0000   1.0000   1.0000   1.0000   1.0000
     1.0000   1.0000   1.0000   1.0000   1.0000   1.0000   1.0000   1.0000
     1.0000   1.0000   1.0000   1.0000   1.0000   1.0000   1.0000   1.0000
     1.0000   1.0000   1.0000   1.0000   1.0000   1.0000   1.0000   1.0000
     1.0000   1.0000  -0.0000  -0.0000  -0.0000  -0.0000  -0.0000  -0.0000
    -0.0000  -0.0000  -0.0000  -0.0000  -0.0000  -0.0000

          k = 0.0000 0.0000 0.6332 (  5390 PWs)   bands (ev):

   -79.3827 -79.3827 -79.3825 -79.3825 -46.2344 -46.2344 -46.2325 -46.2325
   -32.8112 -32.8112 -32.8090 -32.8090 -32.6399 -32.6399 -32.6333 -32.6333
    -5.8666  -5.8666  -5.6483  -5.6483  -5.3904  -5.3904  -5.3750  -5.3750
     5.6285   5.6285   5.8103   5.8103   6.4893   6.4893   6.9390   6.9390
     7.0529   7.0529   7.0600   7.0600   8.0696   8.0696   8.2561   8.2561
     8.3491   8.3491   9.0017   9.0017   9.8910   9.8910   9.9880   9.9880
    11.8208  11.8208  12.0063  12.0063  12.7955  12.7955  13.3593  13.3593
    14.0429  14.0429  14.1212  14.1212  16.0900  16.0900  16.1248  16.1248
    16.5374  16.5374  16.7581  16.7581  22.2818  22.2818

     occupation numbers 
     1.0000   1.0000   1.0000   1.0000   1.0000   1.0000   1.0000   1.0000
     1.0000   1.0000   1.0000   1.0000   1.0000   1.0000   1.0000   1.0000
     1.0000   1.0000   1.0000   1.0000   1.0000   1.0000   1.0000   1.0000
     1.0000   1.0000   1.0000   1.0000   1.0000   1.0000   1.0000   1.0000
     1.0000   1.0000   1.0000   1.0000   1.0000   1.0000   1.0000   1.0000
     1.0000   1.0000   1.0000   1.0000   1.0000   1.0000   1.0000   1.0000
     1.0000   1.0000   1.0000   1.0000   1.0000   1.0000   1.0000   1.0000
    -0.0040  -0.0040  -0.0000  -0.0000  -0.0000  -0.0000  -0.0000  -0.0000
    -0.0000  -0.0000  -0.0000  -0.0000  -0.0000  -0.0000

          k = 0.0000 0.1429 0.0000 (  5381 PWs)   bands (ev):

   -79.3855 -79.3855 -79.3843 -79.3843 -46.2275 -46.2275 -46.2178 -46.2178
   -32.7649 -32.7649 -32.7539 -32.7539 -32.6246 -32.6246 -32.6130 -32.6130
    -6.9954  -6.9954  -5.9072  -5.9072  -5.0676  -5.0676  -4.8760  -4.8760
     4.4655   4.4655   4.6655   4.6655   6.0630   6.0630   6.1625   6.1625
     6.3856   6.3856   8.6486   8.6486   8.6915   8.6915   8.9247   8.9247
     9.9471   9.9471  10.3711  10.3711  10.7299  10.7299  11.4004  11.4004
    11.4793  11.4793  11.5362  11.5362  11.7557  11.7557  11.8964  11.8964
    12.3071  12.3071  14.8877  14.8877  15.0072  15.0072  17.6117  17.6117
    17.9378  17.9378  18.2505  18.2505  19.2658  19.2658

     occupation numbers 
     1.0000   1.0000   1.0000   1.0000   1.0000   1.0000   1.0000   1.0000
     1.0000   1.0000   1.0000   1.0000   1.0000   1.0000   1.0000   1.0000
     1.0000   1.0000   1.0000   1.0000   1.0000   1.0000   1.0000   1.0000
     1.0000   1.0000   1.0000   1.0000   1.0000   1.0000   1.0000   1.0000
     1.0000   1.0000   1.0000   1.0000   1.0000   1.0000   1.0000   1.0000
     1.0000   1.0000   1.0000   1.0000   1.0000   1.0000   1.0000   1.0000
     1.0000   1.0000   1.0000   1.0000   1.0000   1.0000   1.0000   1.0000
     1.0000   1.0000  -0.0000  -0.0000  -0.0000  -0.0000  -0.0000  -0.0000
    -0.0000  -0.0000  -0.0000  -0.0000  -0.0000  -0.0000

          k = 0.0000 0.1429 0.1583 (  5361 PWs)   bands (ev):

   -79.3851 -79.3851 -79.3840 -79.3840 -46.2285 -46.2285 -46.2194 -46.2194
   -32.7683 -32.7683 -32.7596 -32.7596 -32.6298 -32.6298 -32.6154 -32.6154
    -6.8857  -6.8857  -5.8451  -5.8451  -5.1186  -5.1186  -4.9421  -4.9421
     4.6138   4.6138   4.7822   4.7822   6.1413   6.1413   6.2140   6.2140
     6.5404   6.5404   8.2376   8.2376   8.7359   8.7359   9.0013   9.0013
     9.3630   9.3630  10.1784  10.1784  10.2509  10.2509  11.3632  11.3632
    11.4982  11.4982  11.8617  11.8617  11.9091  11.9091  12.2866  12.2866
    12.5575  12.5575  14.8027  14.8027  15.2148  15.2148  17.2617  17.2617
    17.5794  17.5794  18.6313  18.6313  19.0869  19.0869

     occupation numbers 
     1.0000   1.0000   1.0000   1.0000   1.0000   1.0000   1.0000   1.0000
     1.0000   1.0000   1.0000   1.0000   1.0000   1.0000   1.0000   1.0000
     1.0000   1.0000   1.0000   1.0000   1.0000   1.0000   1.0000   1.0000
     1.0000   1.0000   1.0000   1.0000   1.0000   1.0000   1.0000   1.0000
     1.0000   1.0000   1.0000   1.0000   1.0000   1.0000   1.0000   1.0000
     1.0000   1.0000   1.0000   1.0000   1.0000   1.0000   1.0000   1.0000
     1.0000   1.0000   1.0000   1.0000   1.0000   1.0000   1.0000   1.0000
     1.0000   1.0000  -0.0000  -0.0000  -0.0000  -0.0000  -0.0000  -0.0000
    -0.0000  -0.0000  -0.0000  -0.0000  -0.0000  -0.0000

          k = 0.0000 0.1429 0.3166 (  5385 PWs)   bands (ev):

   -79.3844 -79.3844 -79.3834 -79.3834 -46.2310 -46.2310 -46.2235 -46.2235
   -32.7823 -32.7823 -32.7729 -32.7729 -32.6395 -32.6395 -32.6207 -32.6207
    -6.5898  -6.5898  -5.7044  -5.7044  -5.2388  -5.2388  -5.1033  -5.1033
     5.0160   5.0160   5.0928   5.0928   6.3566   6.3566   6.4090   6.4090
     6.9387   6.9387   7.3750   7.3750   8.1730   8.1730   9.0596   9.0596
     9.3849   9.3849   9.5374   9.5374   9.6153   9.6153  10.9584  10.9584
    11.5749  11.5749  12.0557  12.0557  12.2546  12.2546  12.9159  12.9159
    13.1331  13.1331  14.5192  14.5192  15.7247  15.7247  16.5983  16.5983
    16.9653  16.9653  18.4006  18.4006  19.7323  19.7323

     occupation numbers 
     1.0000   1.0000   1.0000   1.0000   1.0000   1.0000   1.0000   1.0000
     1.0000   1.0000   1.0000   1.0000   1.0000   1.0000   1.0000   1.0000
     1.0000   1.0000   1.0000   1.0000   1.0000   1.0000   1.0000   1.0000
     1.0000   1.0000   1.0000   1.0000   1.0000   1.0000   1.0000   1.0000
     1.0000   1.0000   1.0000   1.0000   1.0000   1.0000   1.0000   1.0000
     1.0000   1.0000   1.0000   1.0000   1.0000   1.0000   1.0000   1.0000
     1.0000   1.0000   1.0000   1.0000   1.0000   1.0000   1.0000   1.0000
     1.0000   1.0000  -0.0000  -0.0000  -0.0000  -0.0000  -0.0000  -0.0000
    -0.0000  -0.0000  -0.0000  -0.0000  -0.0000  -0.0000

          k = 0.0000 0.1429 0.4749 (  5383 PWs)   bands (ev):

   -79.3834 -79.3834 -79.3828 -79.3828 -46.2335 -46.2335 -46.2286 -46.2286
   -32.8027 -32.8027 -32.7899 -32.7899 -32.6437 -32.6437 -32.6264 -32.6264
    -6.2027  -6.2027  -5.6158  -5.6158  -5.3475  -5.3475  -5.2628  -5.2628
     5.4275   5.4275   5.5696   5.5696   6.3551   6.3551   6.6948   6.6948
     6.9647   6.9647   7.3824   7.3824   7.5641   7.5641   8.7266   8.7266
     8.9184   8.9184   9.5107   9.5107   9.7161   9.7161  10.1665  10.1665
    11.8549  11.8549  12.1116  12.1116  12.2528  12.2528  13.3365  13.3365
    13.6837  13.6837  14.2299  14.2299  15.9209  15.9209  16.0504  16.0504
    16.7222  16.7222  17.7574  17.7574  21.0184  21.0184

     occupation numbers 
     1.0000   1.0000   1.0000   1.0000   1.0000   1.0000   1.0000   1.0000
     1.0000   1.0000   1.0000   1.0000   1.0000   1.0000   1.0000   1.0000
     1.0000   1.0000   1.0000   1.0000   1.0000   1.0000   1.0000   1.0000
     1.0000   1.0000   1.0000   1.0000   1.0000   1.0000   1.0000   1.0000
     1.0000   1.0000   1.0000   1.0000   1.0000   1.0000   1.0000   1.0000
     1.0000   1.0000   1.0000   1.0000   1.0000   1.0000   1.0000   1.0000
     1.0000   1.0000   1.0000   1.0000   1.0000   1.0000   1.0000   1.0000
     1.0001   1.0001  -0.0000  -0.0000  -0.0000  -0.0000  -0.0000  -0.0000
    -0.0000  -0.0000  -0.0000  -0.0000  -0.0000  -0.0000

          k = 0.0000 0.1429 0.6332 (  5363 PWs)   bands (ev):

   -79.3827 -79.3827 -79.3825 -79.3825 -46.2344 -46.2344 -46.2325 -46.2325
   -32.8169 -32.8169 -32.8034 -32.8034 -32.6419 -32.6419 -32.6313 -32.6313
    -5.8646  -5.8646  -5.6766  -5.6766  -5.4109  -5.4109  -5.3230  -5.3230
     5.6634   5.6634   5.8346   5.8346   6.1838   6.1838   6.5444   6.5444
     7.3399   7.3399   7.3649   7.3649   8.1790   8.1790   8.3048   8.3048
     8.4848   8.4848   9.2043   9.2043   9.7780   9.7780   9.8495   9.8495
    11.8477  11.8477  12.0033  12.0033  12.5630  12.5630  13.1154  13.1154
    14.0033  14.0033  14.2832  14.2832  15.6752  15.6752  15.7833  15.7833
    16.9559  16.9559  17.3186  17.3186  22.3394  22.3394

     occupation numbers 
     1.0000   1.0000   1.0000   1.0000   1.0000   1.0000   1.0000   1.0000
     1.0000   1.0000   1.0000   1.0000   1.0000   1.0000   1.0000   1.0000
     1.0000   1.0000   1.0000   1.0000   1.0000   1.0000   1.0000   1.0000
     1.0000   1.0000   1.0000   1.0000   1.0000   1.0000   1.0000   1.0000
     1.0000   1.0000   1.0000   1.0000   1.0000   1.0000   1.0000   1.0000
     1.0000   1.0000   1.0000   1.0000   1.0000   1.0000   1.0000   1.0000
     1.0000   1.0000   1.0000   1.0000   1.0000   1.0000   1.0000   1.0000
    -0.0223  -0.0223  -0.0000  -0.0000  -0.0000  -0.0000  -0.0000  -0.0000
    -0.0000  -0.0000  -0.0000  -0.0000  -0.0000  -0.0000

          k = 0.0000 0.2857 0.0000 (  5376 PWs)   bands (ev):

   -79.3853 -79.3853 -79.3844 -79.3844 -46.2260 -46.2260 -46.2193 -46.2193
   -32.7618 -32.7618 -32.7542 -32.7542 -32.6244 -32.6244 -32.6164 -32.6164
    -6.7764  -6.7764  -5.9262  -5.9262  -5.2311  -5.2311  -5.0361  -5.0361
     4.9691   4.9691   5.0720   5.0720   6.1319   6.1319   6.2033   6.2033
     6.7686   6.7686   7.9954   7.9954   8.1686   8.1686   8.6469   8.6469
     9.3437   9.3437   9.4160   9.4160  10.6065  10.6065  11.2938  11.2938
    11.7913  11.7913  11.9020  11.9020  12.1273  12.1273  12.3039  12.3039
    12.7648  12.7648  14.4915  14.4915  15.8307  15.8307  17.4211  17.4211
    17.6805  17.6805  18.7275  18.7275  19.1525  19.1525

     occupation numbers 
     1.0000   1.0000   1.0000   1.0000   1.0000   1.0000   1.0000   1.0000
     1.0000   1.0000   1.0000   1.0000   1.0000   1.0000   1.0000   1.0000
     1.0000   1.0000   1.0000   1.0000   1.0000   1.0000   1.0000   1.0000
     1.0000   1.0000   1.0000   1.0000   1.0000   1.0000   1.0000   1.0000
     1.0000   1.0000   1.0000   1.0000   1.0000   1.0000   1.0000   1.0000
     1.0000   1.0000   1.0000   1.0000   1.0000   1.0000   1.0000   1.0000
     1.0000   1.0000   1.0000   1.0000   1.0000   1.0000   1.0000   1.0000
     1.0000   1.0000  -0.0000  -0.0000  -0.0000  -0.0000  -0.0000  -0.0000
    -0.0000  -0.0000  -0.0000  -0.0000  -0.0000  -0.0000

          k = 0.0000 0.2857 0.1583 (  5370 PWs)   bands (ev):

   -79.3850 -79.3850 -79.3842 -79.3842 -46.2271 -46.2271 -46.2208 -46.2208
   -32.7679 -32.7679 -32.7576 -32.7576 -32.6298 -32.6298 -32.6183 -32.6183
    -6.6741  -6.6741  -5.8506  -5.8506  -5.2837  -5.2837  -5.0916  -5.0916
     5.0820   5.0820   5.1900   5.1900   6.1858   6.1858   6.2371   6.2371
     6.9255   6.9255   8.0802   8.0802   8.1202   8.1202   8.3629   8.3629
     8.6683   8.6683   9.6335   9.6335  10.4481  10.4481  11.1854  11.1854
    11.7784  11.7784  12.0608  12.0608  12.2699  12.2699  12.5196  12.5196
    12.9329  12.9329  14.4102  14.4102  15.9610  15.9610  17.0090  17.0090
    17.3272  17.3272  18.6466  18.6466  19.5350  19.5350

     occupation numbers 
     1.0000   1.0000   1.0000   1.0000   1.0000   1.0000   1.0000   1.0000
     1.0000   1.0000   1.0000   1.0000   1.0000   1.0000   1.0000   1.0000
     1.0000   1.0000   1.0000   1.0000   1.0000   1.0000   1.0000   1.0000
     1.0000   1.0000   1.0000   1.0000   1.0000   1.0000   1.0000   1.0000
     1.0000   1.0000   1.0000   1.0000   1.0000   1.0000   1.0000   1.0000
     1.0000   1.0000   1.0000   1.0000   1.0000   1.0000   1.0000   1.0000
     1.0000   1.0000   1.0000   1.0000   1.0000   1.0000   1.0000   1.0000
     1.0000   1.0000  -0.0000  -0.0000  -0.0000  -0.0000  -0.0000  -0.0000
    -0.0000  -0.0000  -0.0000  -0.0000  -0.0000  -0.0000

          k = 0.0000 0.2857 0.3166 (  5376 PWs)   bands (ev):

   -79.3842 -79.3842 -79.3836 -79.3836 -46.2299 -46.2299 -46.2247 -46.2247
   -32.7854 -32.7854 -32.7684 -32.7684 -32.6394 -32.6394 -32.6225 -32.6225
    -6.4050  -6.4050  -5.6715  -5.6715  -5.4088  -5.4088  -5.2201  -5.2201
     5.3673   5.3673   5.4741   5.4741   6.3592   6.3592   6.4412   6.4412
     7.0413   7.0413   7.5146   7.5146   7.6080   7.6080   8.4556   8.4556
     8.7652   8.7652   9.5227   9.5227   9.9524   9.9524  11.0128  11.0128
    11.5048  11.5048  12.3650  12.3650  12.4767  12.4767  12.8076  12.8076
    13.3303  13.3303  14.2437  14.2437  16.0782  16.0782  16.2599  16.2599
    16.9129  16.9129  18.4294  18.4294  20.3761  20.3761

     occupation numbers 
     1.0000   1.0000   1.0000   1.0000   1.0000   1.0000   1.0000   1.0000
     1.0000   1.0000   1.0000   1.0000   1.0000   1.0000   1.0000   1.0000
     1.0000   1.0000   1.0000   1.0000   1.0000   1.0000   1.0000   1.0000
     1.0000   1.0000   1.0000   1.0000   1.0000   1.0000   1.0000   1.0000
     1.0000   1.0000   1.0000   1.0000   1.0000   1.0000   1.0000   1.0000
     1.0000   1.0000   1.0000   1.0000   1.0000   1.0000   1.0000   1.0000
     1.0000   1.0000   1.0000   1.0000   1.0000   1.0000   1.0000   1.0000
     1.0000   1.0000  -0.0000  -0.0000  -0.0000  -0.0000  -0.0000  -0.0000
    -0.0000  -0.0000  -0.0000  -0.0000  -0.0000  -0.0000

          k = 0.0000 0.2857 0.4749 (  5364 PWs)   bands (ev):

   -79.3833 -79.3833 -79.3829 -79.3829 -46.2328 -46.2328 -46.2292 -46.2292
   -32.8073 -32.8073 -32.7852 -32.7852 -32.6444 -32.6444 -32.6263 -32.6263
    -6.0808  -6.0808  -5.6214  -5.6214  -5.4398  -5.4398  -5.3083  -5.3083
     5.6546   5.6546   5.7522   5.7522   6.1524   6.1524   6.5503   6.5503
     7.0051   7.0051   7.1753   7.1753   7.9607   7.9607   8.6276   8.6276
     9.0311   9.0311   9.2141   9.2141   9.6028   9.6028  10.6468  10.6468
    11.4484  11.4484  12.2163  12.2163  12.3344  12.3344  12.8917  12.8917
    13.7867  13.7867  14.2484  14.2484  15.5371  15.5371  15.7549  15.7549
    17.2255  17.2255  18.1814  18.1814  21.4374  21.4374

     occupation numbers 
     1.0000   1.0000   1.0000   1.0000   1.0000   1.0000   1.0000   1.0000
     1.0000   1.0000   1.0000   1.0000   1.0000   1.0000   1.0000   1.0000
     1.0000   1.0000   1.0000   1.0000   1.0000   1.0000   1.0000   1.0000
     1.0000   1.0000   1.0000   1.0000   1.0000   1.0000   1.0000   1.0000
     1.0000   1.0000   1.0000   1.0000   1.0000   1.0000   1.0000   1.0000
     1.0000   1.0000   1.0000   1.0000   1.0000   1.0000   1.0000   1.0000
     1.0000   1.0000   1.0000   1.0000   1.0000   1.0000   1.0000   1.0000
     1.0246   1.0246  -0.0000  -0.0000  -0.0000  -0.0000  -0.0000  -0.0000
    -0.0000  -0.0000  -0.0000  -0.0000  -0.0000  -0.0000

          k = 0.0000 0.2857 0.6332 (  5369 PWs)   bands (ev):

   -79.3827 -79.3827 -79.3825 -79.3825 -46.2344 -46.2344 -46.2325 -46.2325
   -32.8224 -32.8224 -32.7983 -32.7983 -32.6447 -32.6447 -32.6285 -32.6285
    -5.8561  -5.8561  -5.7372  -5.7372  -5.4044  -5.4044  -5.2655  -5.2655
     5.6481   5.6481   5.7385   5.7385   6.0476   6.0476   6.2531   6.2531
     7.4488   7.4488   7.7866   7.7866   8.0665   8.0665   8.5449   8.5449
     9.0295   9.0295   9.3177   9.3177   9.5786   9.5786   9.9292   9.9292
    11.7566  11.7566  11.9578  11.9578  12.0879  12.0879  12.5913  12.5913
    14.0665  14.0665  14.4193  14.4193  15.2541  15.2541  15.3852  15.3852
    17.6200  17.6200  17.9717  17.9717  22.5202  22.5202

     occupation numbers 
     1.0000   1.0000   1.0000   1.0000   1.0000   1.0000   1.0000   1.0000
     1.0000   1.0000   1.0000   1.0000   1.0000   1.0000   1.0000   1.0000
     1.0000   1.0000   1.0000   1.0000   1.0000   1.0000   1.0000   1.0000
     1.0000   1.0000   1.0000   1.0000   1.0000   1.0000   1.0000   1.0000
     1.0000   1.0000   1.0000   1.0000   1.0000   1.0000   1.0000   1.0000
     1.0000   1.0000   1.0000   1.0000   1.0000   1.0000   1.0000   1.0000
     1.0000   1.0000   1.0000   1.0000   1.0000   1.0000   1.0000   1.0000
    -0.0009  -0.0009  -0.0000  -0.0000  -0.0000  -0.0000  -0.0000  -0.0000
    -0.0000  -0.0000  -0.0000  -0.0000  -0.0000  -0.0000

          k = 0.0000 0.4286 0.0000 (  5372 PWs)   bands (ev):

   -79.3850 -79.3850 -79.3847 -79.3847 -46.2239 -46.2239 -46.2215 -46.2215
   -32.7583 -32.7583 -32.7555 -32.7555 -32.6232 -32.6232 -32.6203 -32.6203
    -6.4540  -6.4540  -6.1159  -6.1159  -5.2979  -5.2979  -5.1975  -5.1975
     5.5082   5.5082   5.5560   5.5560   6.2140   6.2140   6.2382   6.2382
     7.2461   7.2461   7.4582   7.4582   7.5617   7.5617   8.3414   8.3414
     8.6769   8.6769   8.9292   8.9292  10.7130  10.7130  10.9762  10.9762
    12.0551  12.0551  12.1281  12.1281  12.4119  12.4119  12.5253  12.5253
    13.3322  13.3322  13.9351  13.9351  16.8460  16.8460  17.2846  17.2846
    17.4459  17.4459  17.9266  17.9266  20.2434  20.2434

     occupation numbers 
     1.0000   1.0000   1.0000   1.0000   1.0000   1.0000   1.0000   1.0000
     1.0000   1.0000   1.0000   1.0000   1.0000   1.0000   1.0000   1.0000
     1.0000   1.0000   1.0000   1.0000   1.0000   1.0000   1.0000   1.0000
     1.0000   1.0000   1.0000   1.0000   1.0000   1.0000   1.0000   1.0000
     1.0000   1.0000   1.0000   1.0000   1.0000   1.0000   1.0000   1.0000
     1.0000   1.0000   1.0000   1.0000   1.0000   1.0000   1.0000   1.0000
     1.0000   1.0000   1.0000   1.0000   1.0000   1.0000   1.0000   1.0000
     1.0000   1.0000   0.0736   0.0736  -0.0000  -0.0000  -0.0000  -0.0000
    -0.0000  -0.0000  -0.0000  -0.0000  -0.0000  -0.0000

          k = 0.0000 0.4286 0.1583 (  5373 PWs)   bands (ev):

   -79.3847 -79.3847 -79.3845 -79.3845 -46.2251 -46.2251 -46.2228 -46.2228
   -32.7675 -32.7675 -32.7561 -32.7561 -32.6294 -32.6294 -32.6210 -32.6210
    -6.3618  -6.3618  -6.0295  -6.0295  -5.3490  -5.3490  -5.2440  -5.2440
     5.6129   5.6129   5.7082   5.7082   6.1801   6.1801   6.2216   6.2216
     7.3933   7.3933   7.5863   7.5863   7.6959   7.6959   7.9857   7.9857
     8.2925   8.2925   8.8789   8.8789  10.7244  10.7244  10.9783  10.9783
    11.9932  11.9932  12.0748  12.0748  12.6173  12.6173  12.7634  12.7634
    13.3544  13.3544  13.9071  13.9071  16.6568  16.6568  16.9032  16.9032
    17.2490  17.2490  17.9591  17.9591  20.5953  20.5953

     occupation numbers 
     1.0000   1.0000   1.0000   1.0000   1.0000   1.0000   1.0000   1.0000
     1.0000   1.0000   1.0000   1.0000   1.0000   1.0000   1.0000   1.0000
     1.0000   1.0000   1.0000   1.0000   1.0000   1.0000   1.0000   1.0000
     1.0000   1.0000   1.0000   1.0000   1.0000   1.0000   1.0000   1.0000
     1.0000   1.0000   1.0000   1.0000   1.0000   1.0000   1.0000   1.0000
     1.0000   1.0000   1.0000   1.0000   1.0000   1.0000   1.0000   1.0000
     1.0000   1.0000   1.0000   1.0000   1.0000   1.0000   1.0000   1.0000
     1.0000   1.0000   0.3330   0.3330  -0.0000  -0.0000  -0.0000  -0.0000
    -0.0000  -0.0000  -0.0000  -0.0000  -0.0000  -0.0000

          k = 0.0000 0.4286 0.3166 (  5381 PWs)   bands (ev):

   -79.3840 -79.3840 -79.3838 -79.3838 -46.2284 -46.2284 -46.2262 -46.2262
   -32.7870 -32.7870 -32.7658 -32.7658 -32.6391 -32.6391 -32.6242 -32.6242
    -6.1302  -6.1302  -5.8221  -5.8221  -5.4656  -5.4656  -5.3419  -5.3419
     5.8224   5.8224   5.9356   5.9356   6.3350   6.3350   6.4699   6.4699
     6.8628   6.8628   7.0497   7.0497   7.9722   7.9722   8.0873   8.0873
     8.3757   8.3757   9.0217   9.0217  10.3620  10.3620  10.6813  10.6813
    11.9330  11.9330  12.2525  12.2525  12.6610  12.6610  12.9137  12.9137
    13.4959  13.4959  13.9805  13.9805  15.9531  15.9531  16.1175  16.1175
    17.4250  17.4250  18.0494  18.0494  21.3174  21.3174

     occupation numbers 
     1.0000   1.0000   1.0000   1.0000   1.0000   1.0000   1.0000   1.0000
     1.0000   1.0000   1.0000   1.0000   1.0000   1.0000   1.0000   1.0000
     1.0000   1.0000   1.0000   1.0000   1.0000   1.0000   1.0000   1.0000
     1.0000   1.0000   1.0000   1.0000   1.0000   1.0000   1.0000   1.0000
     1.0000   1.0000   1.0000   1.0000   1.0000   1.0000   1.0000   1.0000
     1.0000   1.0000   1.0000   1.0000   1.0000   1.0000   1.0000   1.0000
     1.0000   1.0000   1.0000   1.0000   1.0000   1.0000   1.0000   1.0000
     1.0000   1.0000  -0.0350  -0.0350  -0.0000  -0.0000  -0.0000  -0.0000
    -0.0000  -0.0000  -0.0000  -0.0000  -0.0000  -0.0000

          k = 0.0000 0.4286 0.4749 (  5374 PWs)   bands (ev):

   -79.3832 -79.3832 -79.3830 -79.3830 -46.2321 -46.2321 -46.2300 -46.2300
   -32.8098 -32.8098 -32.7824 -32.7824 -32.6448 -32.6448 -32.6263 -32.6263
    -5.9059  -5.9059  -5.7229  -5.7229  -5.4889  -5.4889  -5.3500  -5.3500
     5.8798   5.8798   5.9498   5.9498   6.1130   6.1130   6.2994   6.2994
     6.9043   6.9043   7.2042   7.2042   8.1732   8.1732   8.5303   8.5303
     8.8439   8.8439   9.0860   9.0860   9.9960   9.9960  10.5810  10.5810
    11.4672  11.4672  12.0173  12.0173  12.3741  12.3741  12.6883  12.6883
    13.8488  13.8488  14.2644  14.2644  15.3337  15.3337  15.4661  15.4661
    17.8065  17.8065  18.2092  18.2092  22.1214  22.1214

     occupation numbers 
     1.0000   1.0000   1.0000   1.0000   1.0000   1.0000   1.0000   1.0000
     1.0000   1.0000   1.0000   1.0000   1.0000   1.0000   1.0000   1.0000
     1.0000   1.0000   1.0000   1.0000   1.0000   1.0000   1.0000   1.0000
     1.0000   1.0000   1.0000   1.0000   1.0000   1.0000   1.0000   1.0000
     1.0000   1.0000   1.0000   1.0000   1.0000   1.0000   1.0000   1.0000
     1.0000   1.0000   1.0000   1.0000   1.0000   1.0000   1.0000   1.0000
     1.0000   1.0000   1.0000   1.0000   1.0000   1.0000   1.0000   1.0000
     0.9428   0.9428  -0.0000  -0.0000  -0.0000  -0.0000  -0.0000  -0.0000
    -0.0000  -0.0000  -0.0000  -0.0000  -0.0000  -0.0000

          k = 0.0000 0.4286 0.6332 (  5364 PWs)   bands (ev):

   -79.3826 -79.3826 -79.3826 -79.3826 -46.2345 -46.2345 -46.2325 -46.2325
   -32.8254 -32.8254 -32.7954 -32.7954 -32.6464 -32.6464 -32.6268 -32.6268
    -5.8349  -5.8349  -5.7951  -5.7951  -5.3910  -5.3910  -5.2324  -5.2324
     5.5248   5.5248   5.5782   5.5782   6.1663   6.1663   6.2140   6.2140
     7.4514   7.4514   7.9299   7.9299   8.2771   8.2771   8.7031   8.7031
     8.8983   8.8983   9.0680   9.0680  10.0962  10.0962  10.5922  10.5922
    11.1387  11.1387  11.5383  11.5383  11.9716  11.9716  12.3145  12.3145
    14.1198  14.1198  14.4765  14.4765  15.0643  15.0643  15.1344  15.1344
    18.1148  18.1148  18.3259  18.3259  22.8529  22.8531

     occupation numbers 
     1.0000   1.0000   1.0000   1.0000   1.0000   1.0000   1.0000   1.0000
     1.0000   1.0000   1.0000   1.0000   1.0000   1.0000   1.0000   1.0000
     1.0000   1.0000   1.0000   1.0000   1.0000   1.0000   1.0000   1.0000
     1.0000   1.0000   1.0000   1.0000   1.0000   1.0000   1.0000   1.0000
     1.0000   1.0000   1.0000   1.0000   1.0000   1.0000   1.0000   1.0000
     1.0000   1.0000   1.0000   1.0000   1.0000   1.0000   1.0000   1.0000
     1.0000   1.0000   1.0000   1.0000   1.0000   1.0000   1.0000   1.0000
    -0.0000  -0.0000  -0.0000  -0.0000  -0.0000  -0.0000  -0.0000  -0.0000
    -0.0000  -0.0000  -0.0000  -0.0000  -0.0000  -0.0000

          k = 0.1429 0.1429 0.0000 (  5363 PWs)   bands (ev):

   -79.3854 -79.3854 -79.3843 -79.3843 -46.2270 -46.2270 -46.2183 -46.2183
   -32.7640 -32.7640 -32.7540 -32.7540 -32.6246 -32.6246 -32.6140 -32.6140
    -6.9285  -6.9285  -5.9049  -5.9049  -5.1546  -5.1546  -4.8957  -4.8957
     4.3888   4.3888   5.0350   5.0350   6.0611   6.0611   6.1931   6.1931
     6.5101   6.5101   8.0761   8.0761   8.6604   8.6604   9.0233   9.0233
     9.8670   9.8670  10.3004  10.3004  10.4736  10.4736  11.1537  11.1537
    11.4562  11.4562  11.6161  11.6161  11.9615  11.9615  12.1329  12.1329
    12.5372  12.5372  14.7999  14.7999  15.1458  15.1458  17.4947  17.4947
    17.9224  17.9224  18.6277  18.6277  19.0724  19.0724

     occupation numbers 
     1.0000   1.0000   1.0000   1.0000   1.0000   1.0000   1.0000   1.0000
     1.0000   1.0000   1.0000   1.0000   1.0000   1.0000   1.0000   1.0000
     1.0000   1.0000   1.0000   1.0000   1.0000   1.0000   1.0000   1.0000
     1.0000   1.0000   1.0000   1.0000   1.0000   1.0000   1.0000   1.0000
     1.0000   1.0000   1.0000   1.0000   1.0000   1.0000   1.0000   1.0000
     1.0000   1.0000   1.0000   1.0000   1.0000   1.0000   1.0000   1.0000
     1.0000   1.0000   1.0000   1.0000   1.0000   1.0000   1.0000   1.0000
     1.0000   1.0000  -0.0000  -0.0000  -0.0000  -0.0000  -0.0000  -0.0000
    -0.0000  -0.0000  -0.0000  -0.0000  -0.0000  -0.0000

          k = 0.1429 0.1429 0.1583 (  5370 PWs)   bands (ev):

   -79.3851 -79.3851 -79.3841 -79.3841 -46.2280 -46.2280 -46.2198 -46.2198
   -32.7682 -32.7682 -32.7590 -32.7590 -32.6298 -32.6298 -32.6163 -32.6163
    -6.8211  -6.8211  -5.8384  -5.8384  -5.2049  -5.2049  -4.9601  -4.9601
     4.5290   4.5290   5.1471   5.1471   6.1028   6.1028   6.2634   6.2634
     6.6743   6.6743   8.0661   8.0661   8.3145   8.3145   9.0860   9.0860
     9.2123   9.2123  10.1255  10.1255  10.3616  10.3616  11.1438  11.1438
    11.5082  11.5082  11.7174  11.7174  12.1401  12.1401  12.4181  12.4181
    12.7645  12.7645  14.6949  14.6949  15.3720  15.3720  17.0856  17.0856
    17.6002  17.6002  18.8901  18.8901  19.0367  19.0367

     occupation numbers 
     1.0000   1.0000   1.0000   1.0000   1.0000   1.0000   1.0000   1.0000
     1.0000   1.0000   1.0000   1.0000   1.0000   1.0000   1.0000   1.0000
     1.0000   1.0000   1.0000   1.0000   1.0000   1.0000   1.0000   1.0000
     1.0000   1.0000   1.0000   1.0000   1.0000   1.0000   1.0000   1.0000
     1.0000   1.0000   1.0000   1.0000   1.0000   1.0000   1.0000   1.0000
     1.0000   1.0000   1.0000   1.0000   1.0000   1.0000   1.0000   1.0000
     1.0000   1.0000   1.0000   1.0000   1.0000   1.0000   1.0000   1.0000
     1.0000   1.0000  -0.0000  -0.0000  -0.0000  -0.0000  -0.0000  -0.0000
    -0.0000  -0.0000  -0.0000  -0.0000  -0.0000  -0.0000

          k = 0.1429 0.1429 0.3166 (  5376 PWs)   bands (ev):

   -79.3843 -79.3843 -79.3835 -79.3835 -46.2306 -46.2306 -46.2239 -46.2239
   -32.7834 -32.7834 -32.7714 -32.7714 -32.6393 -32.6393 -32.6214 -32.6214
    -6.5330  -6.5330  -5.6871  -5.6871  -5.3193  -5.3193  -5.1174  -5.1174
     4.9124   4.9124   5.4258   5.4258   6.2468   6.2468   6.5251   6.5251
     7.0753   7.0753   7.2257   7.2257   8.1403   8.1403   8.6028   8.6028
     9.2435   9.2435   9.5933   9.5933   9.9064   9.9064  11.0901  11.0901
    11.3925  11.3925  11.9610  11.9610  12.4448  12.4448  12.8535  12.8535
    13.2635  13.2635  14.4307  14.4307  15.8455  15.8455  16.3862  16.3862
    17.0027  17.0027  18.4406  18.4406  19.9527  19.9527

     occupation numbers 
     1.0000   1.0000   1.0000   1.0000   1.0000   1.0000   1.0000   1.0000
     1.0000   1.0000   1.0000   1.0000   1.0000   1.0000   1.0000   1.0000
     1.0000   1.0000   1.0000   1.0000   1.0000   1.0000   1.0000   1.0000
     1.0000   1.0000   1.0000   1.0000   1.0000   1.0000   1.0000   1.0000
     1.0000   1.0000   1.0000   1.0000   1.0000   1.0000   1.0000   1.0000
     1.0000   1.0000   1.0000   1.0000   1.0000   1.0000   1.0000   1.0000
     1.0000   1.0000   1.0000   1.0000   1.0000   1.0000   1.0000   1.0000
     1.0000   1.0000  -0.0000  -0.0000  -0.0000  -0.0000  -0.0000  -0.0000
    -0.0000  -0.0000  -0.0000  -0.0000  -0.0000  -0.0000

          k = 0.1429 0.1429 0.4749 (  5368 PWs)   bands (ev):

   -79.3834 -79.3834 -79.3829 -79.3829 -46.2332 -46.2332 -46.2288 -46.2288
   -32.8043 -32.8043 -32.7884 -32.7884 -32.6438 -32.6438 -32.6265 -32.6265
    -6.1631  -6.1631  -5.6139  -5.6139  -5.3834  -5.3834  -5.2739  -5.2739
     5.4055   5.4055   5.7223   5.7223   6.2742   6.2742   6.5224   6.5224
     7.1699   7.1699   7.2508   7.2508   7.7050   7.7050   8.6902   8.6902
     8.8623   8.8623   9.4609   9.4609   9.7288   9.7288  10.3565  10.3565
    11.7459  11.7459  12.0430  12.0430  12.3395  12.3395  13.3216  13.3216
    13.5347  13.5347  14.2850  14.2850  15.6096  15.6096  16.2860  16.2860
    16.6863  16.6863  17.9426  17.9426  21.1557  21.1557

     occupation numbers 
     1.0000   1.0000   1.0000   1.0000   1.0000   1.0000   1.0000   1.0000
     1.0000   1.0000   1.0000   1.0000   1.0000   1.0000   1.0000   1.0000
     1.0000   1.0000   1.0000   1.0000   1.0000   1.0000   1.0000   1.0000
     1.0000   1.0000   1.0000   1.0000   1.0000   1.0000   1.0000   1.0000
     1.0000   1.0000   1.0000   1.0000   1.0000   1.0000   1.0000   1.0000
     1.0000   1.0000   1.0000   1.0000   1.0000   1.0000   1.0000   1.0000
     1.0000   1.0000   1.0000   1.0000   1.0000   1.0000   1.0000   1.0000
     1.0000   1.0000  -0.0000  -0.0000  -0.0000  -0.0000  -0.0000  -0.0000
    -0.0000  -0.0000  -0.0000  -0.0000  -0.0000  -0.0000

          k = 0.1429 0.1429 0.6332 (  5373 PWs)   bands (ev):

   -79.3827 -79.3827 -79.3825 -79.3825 -46.2344 -46.2344 -46.2326 -46.2326
   -32.8188 -32.8188 -32.8016 -32.8016 -32.6428 -32.6428 -32.6305 -32.6305
    -5.8631  -5.8631  -5.6794  -5.6794  -5.4316  -5.4316  -5.2959  -5.2959
     5.6504   5.6504   5.8770   5.8770   6.0522   6.0522   6.6463   6.6463
     6.7811   6.7811   7.8544   7.8544   8.2445   8.2445   8.4388   8.4388
     8.5797   8.5797   9.3522   9.3522   9.4754   9.4754   9.9812   9.9812
    11.8505  11.8505  11.9882  11.9882  12.3689  12.3689  13.1316  13.1316
    13.7517  13.7517  14.4454  14.4454  15.2679  15.2679  16.1357  16.1357
    16.7669  16.7669  17.7110  17.7110  22.3904  22.3904

     occupation numbers 
     1.0000   1.0000   1.0000   1.0000   1.0000   1.0000   1.0000   1.0000
     1.0000   1.0000   1.0000   1.0000   1.0000   1.0000   1.0000   1.0000
     1.0000   1.0000   1.0000   1.0000   1.0000   1.0000   1.0000   1.0000
     1.0000   1.0000   1.0000   1.0000   1.0000   1.0000   1.0000   1.0000
     1.0000   1.0000   1.0000   1.0000   1.0000   1.0000   1.0000   1.0000
     1.0000   1.0000   1.0000   1.0000   1.0000   1.0000   1.0000   1.0000
     1.0000   1.0000   1.0000   1.0000   1.0000   1.0000   1.0000   1.0000
     1.0061   1.0061  -0.0000  -0.0000  -0.0000  -0.0000  -0.0000  -0.0000
    -0.0000  -0.0000  -0.0000  -0.0000  -0.0000  -0.0000

          k = 0.1429 0.2857 0.0000 (  5373 PWs)   bands (ev):

   -79.3852 -79.3852 -79.3845 -79.3845 -46.2257 -46.2257 -46.2196 -46.2196
   -32.7617 -32.7617 -32.7545 -32.7545 -32.6242 -32.6242 -32.6167 -32.6167
    -6.7386  -6.7386  -5.9535  -5.9535  -5.2850  -5.2850  -4.9904  -4.9904
     4.5670   4.5670   5.5535   5.5535   6.0850   6.0850   6.2394   6.2394
     6.8745   6.8745   7.4116   7.4116   8.5798   8.5798   8.7093   8.7093
     9.5113   9.5113   9.6366   9.6366  10.2860  10.2860  11.1751  11.1751
    11.4818  11.4818  11.8318  11.8318  12.1565  12.1565  12.4675  12.4675
    12.9498  12.9498  14.4661  14.4661  15.7398  15.7398  17.3405  17.3405
    17.7784  17.7784  18.5236  18.5236  19.5189  19.5189

     occupation numbers 
     1.0000   1.0000   1.0000   1.0000   1.0000   1.0000   1.0000   1.0000
     1.0000   1.0000   1.0000   1.0000   1.0000   1.0000   1.0000   1.0000
     1.0000   1.0000   1.0000   1.0000   1.0000   1.0000   1.0000   1.0000
     1.0000   1.0000   1.0000   1.0000   1.0000   1.0000   1.0000   1.0000
     1.0000   1.0000   1.0000   1.0000   1.0000   1.0000   1.0000   1.0000
     1.0000   1.0000   1.0000   1.0000   1.0000   1.0000   1.0000   1.0000
     1.0000   1.0000   1.0000   1.0000   1.0000   1.0000   1.0000   1.0000
     1.0000   1.0000  -0.0000  -0.0000  -0.0000  -0.0000  -0.0000  -0.0000
    -0.0000  -0.0000  -0.0000  -0.0000  -0.0000  -0.0000

          k = 0.1429 0.2857 0.1583 (  5374 PWs)   bands (ev):

   -79.3849 -79.3849 -79.3842 -79.3842 -46.2268 -46.2268 -46.2211 -46.2211
   -32.7678 -32.7678 -32.7579 -32.7579 -32.6294 -32.6294 -32.6187 -32.6187
    -6.6376  -6.6376  -5.8744  -5.8744  -5.3370  -5.3370  -5.0487  -5.0487
     4.6962   4.6962   5.6737   5.6737   6.1080   6.1080   6.2342   6.2342
     7.0394   7.0394   7.6251   7.6251   8.0346   8.0346   8.6464   8.6464
     9.0626   9.0626   9.7292   9.7292  10.2884  10.2884  10.9530  10.9530
    11.6768  11.6768  11.9177  11.9177  12.2686  12.2686  12.6730  12.6730
    13.0723  13.0723  14.3731  14.3731  15.9096  15.9096  16.8927  16.8927
    17.4714  17.4714  18.4737  18.4737  19.8567  19.8567

     occupation numbers 
     1.0000   1.0000   1.0000   1.0000   1.0000   1.0000   1.0000   1.0000
     1.0000   1.0000   1.0000   1.0000   1.0000   1.0000   1.0000   1.0000
     1.0000   1.0000   1.0000   1.0000   1.0000   1.0000   1.0000   1.0000
     1.0000   1.0000   1.0000   1.0000   1.0000   1.0000   1.0000   1.0000
     1.0000   1.0000   1.0000   1.0000   1.0000   1.0000   1.0000   1.0000
     1.0000   1.0000   1.0000   1.0000   1.0000   1.0000   1.0000   1.0000
     1.0000   1.0000   1.0000   1.0000   1.0000   1.0000   1.0000   1.0000
     1.0000   1.0000  -0.0000  -0.0000  -0.0000  -0.0000  -0.0000  -0.0000
    -0.0000  -0.0000  -0.0000  -0.0000  -0.0000  -0.0000

          k = 0.1429 0.2857 0.3166 (  5375 PWs)   bands (ev):

   -79.3842 -79.3842 -79.3836 -79.3836 -46.2296 -46.2296 -46.2249 -46.2249
   -32.7852 -32.7852 -32.7688 -32.7688 -32.6388 -32.6388 -32.6231 -32.6231
    -6.3718  -6.3718  -5.6812  -5.6812  -5.4611  -5.4611  -5.1886  -5.1886
     5.0437   5.0437   5.8780   5.8780   6.2144   6.2144   6.4790   6.4790
     6.9464   6.9464   7.5194   7.5194   7.8663   7.8663   8.1381   8.1381
     9.1623   9.1623   9.4089   9.4089  10.0146  10.0146  10.8971  10.8971
    11.5501  11.5501  12.1106  12.1106  12.5141  12.5141  12.9017  12.9017
    13.4002  13.4002  14.1849  14.1849  15.9672  15.9672  16.3476  16.3476
    16.9621  16.9621  18.3241  18.3241  20.6064  20.6064

     occupation numbers 
     1.0000   1.0000   1.0000   1.0000   1.0000   1.0000   1.0000   1.0000
     1.0000   1.0000   1.0000   1.0000   1.0000   1.0000   1.0000   1.0000
     1.0000   1.0000   1.0000   1.0000   1.0000   1.0000   1.0000   1.0000
     1.0000   1.0000   1.0000   1.0000   1.0000   1.0000   1.0000   1.0000
     1.0000   1.0000   1.0000   1.0000   1.0000   1.0000   1.0000   1.0000
     1.0000   1.0000   1.0000   1.0000   1.0000   1.0000   1.0000   1.0000
     1.0000   1.0000   1.0000   1.0000   1.0000   1.0000   1.0000   1.0000
     1.0000   1.0000  -0.0000  -0.0000  -0.0000  -0.0000  -0.0000  -0.0000
    -0.0000  -0.0000  -0.0000  -0.0000  -0.0000  -0.0000

          k = 0.1429 0.2857 0.4749 (  5372 PWs)   bands (ev):

   -79.3833 -79.3833 -79.3829 -79.3829 -46.2327 -46.2327 -46.2294 -46.2294
   -32.8069 -32.8069 -32.7856 -32.7856 -32.6439 -32.6439 -32.6269 -32.6269
    -6.0526  -6.0526  -5.6301  -5.6301  -5.4548  -5.4548  -5.3092  -5.3092
     5.4807   5.4807   5.9598   5.9598   6.1217   6.1217   6.4045   6.4045
     6.9184   6.9184   7.3540   7.3540   8.0445   8.0445   8.5357   8.5357
     8.8900   8.8900   9.3933   9.3933   9.6994   9.6994  10.7548  10.7548
    11.3859  11.3859  12.1067  12.1067  12.4105  12.4105  12.9619  12.9619
    13.6179  13.6179  14.2639  14.2639  15.3587  15.3587  16.0716  16.0716
    17.0951  17.0951  18.1631  18.1631  21.5628  21.5628

     occupation numbers 
     1.0000   1.0000   1.0000   1.0000   1.0000   1.0000   1.0000   1.0000
     1.0000   1.0000   1.0000   1.0000   1.0000   1.0000   1.0000   1.0000
     1.0000   1.0000   1.0000   1.0000   1.0000   1.0000   1.0000   1.0000
     1.0000   1.0000   1.0000   1.0000   1.0000   1.0000   1.0000   1.0000
     1.0000   1.0000   1.0000   1.0000   1.0000   1.0000   1.0000   1.0000
     1.0000   1.0000   1.0000   1.0000   1.0000   1.0000   1.0000   1.0000
     1.0000   1.0000   1.0000   1.0000   1.0000   1.0000   1.0000   1.0000
     1.0000   1.0000  -0.0000  -0.0000  -0.0000  -0.0000  -0.0000  -0.0000
    -0.0000  -0.0000  -0.0000  -0.0000  -0.0000  -0.0000

          k = 0.1429 0.2857 0.6332 (  5363 PWs)   bands (ev):

   -79.3827 -79.3827 -79.3825 -79.3825 -46.2344 -46.2344 -46.2326 -46.2326
   -32.8220 -32.8220 -32.7987 -32.7987 -32.6445 -32.6445 -32.6289 -32.6289
    -5.8509  -5.8509  -5.7093  -5.7093  -5.4331  -5.4331  -5.2654  -5.2654
     5.5797   5.5797   5.8182   5.8182   6.0759   6.0759   6.2738   6.2738
     6.9669   6.9669   7.9241   7.9241   8.2483   8.2483   8.7056   8.7056
     8.8936   8.8936   9.2477   9.2477   9.6448   9.6448  10.1886  10.1886
    11.6573  11.6573  11.9434  11.9434  12.1184  12.1184  12.7243  12.7243
    13.7903  13.7903  14.4855  14.4855  15.0444  15.0444  15.7843  15.7843
    17.3020  17.3020  18.1135  18.1135  22.5534  22.5534

     occupation numbers 
     1.0000   1.0000   1.0000   1.0000   1.0000   1.0000   1.0000   1.0000
     1.0000   1.0000   1.0000   1.0000   1.0000   1.0000   1.0000   1.0000
     1.0000   1.0000   1.0000   1.0000   1.0000   1.0000   1.0000   1.0000
     1.0000   1.0000   1.0000   1.0000   1.0000   1.0000   1.0000   1.0000
     1.0000   1.0000   1.0000   1.0000   1.0000   1.0000   1.0000   1.0000
     1.0000   1.0000   1.0000   1.0000   1.0000   1.0000   1.0000   1.0000
     1.0000   1.0000   1.0000   1.0000   1.0000   1.0000   1.0000   1.0000
     1.0270   1.0270  -0.0000  -0.0000  -0.0000  -0.0000  -0.0000  -0.0000
    -0.0000  -0.0000  -0.0000  -0.0000  -0.0000  -0.0000

          k = 0.1429 0.4286 0.0000 (  5380 PWs)   bands (ev):

   -79.3850 -79.3850 -79.3847 -79.3847 -46.2237 -46.2237 -46.2216 -46.2216
   -32.7587 -32.7587 -32.7560 -32.7560 -32.6227 -32.6227 -32.6200 -32.6200
    -6.4602  -6.4602  -6.1596  -6.1596  -5.2734  -5.2734  -5.1409  -5.1409
     5.0134   5.0134   5.5313   5.5313   6.1429   6.1429   6.2183   6.2183
     7.3246   7.3246   7.5586   7.5586   8.0832   8.0832   8.5906   8.5906
     8.7979   8.7979   9.0893   9.0893  10.4576  10.4576  10.8047  10.8047
    11.8918  11.8918  12.0752  12.0752  12.2478  12.2478  12.4868  12.4868
    13.4573  13.4573  13.9931  13.9931  16.6260  16.6260  17.3389  17.3389
    17.4845  17.4845  17.7876  17.7876  20.5451  20.5451

     occupation numbers 
     1.0000   1.0000   1.0000   1.0000   1.0000   1.0000   1.0000   1.0000
     1.0000   1.0000   1.0000   1.0000   1.0000   1.0000   1.0000   1.0000
     1.0000   1.0000   1.0000   1.0000   1.0000   1.0000   1.0000   1.0000
     1.0000   1.0000   1.0000   1.0000   1.0000   1.0000   1.0000   1.0000
     1.0000   1.0000   1.0000   1.0000   1.0000   1.0000   1.0000   1.0000
     1.0000   1.0000   1.0000   1.0000   1.0000   1.0000   1.0000   1.0000
     1.0000   1.0000   1.0000   1.0000   1.0000   1.0000   1.0000   1.0000
     1.0000   1.0000  -0.0291  -0.0291  -0.0000  -0.0000  -0.0000  -0.0000
    -0.0000  -0.0000  -0.0000  -0.0000  -0.0000  -0.0000

          k = 0.1429 0.4286 0.1583 (  5384 PWs)   bands (ev):

   -79.3847 -79.3847 -79.3845 -79.3845 -46.2250 -46.2250 -46.2229 -46.2229
   -32.7674 -32.7674 -32.7570 -32.7570 -32.6287 -32.6287 -32.6211 -32.6211
    -6.3681  -6.3681  -6.0739  -6.0739  -5.3232  -5.3232  -5.1909  -5.1909
     5.1286   5.1286   5.6660   5.6660   6.1504   6.1504   6.1857   6.1857
     7.4862   7.4862   7.7181   7.7181   7.9452   7.9452   8.3673   8.3673
     8.4992   8.4992   8.9759   8.9759  10.4899  10.4899  10.7544  10.7544
    11.9268  11.9268  12.0349  12.0349  12.4775  12.4775  12.7249  12.7249
    13.4380  13.4380  13.9341  13.9341  16.5919  16.5919  16.9353  16.9353
    17.2876  17.2876  17.7990  17.7990  20.8470  20.8470

     occupation numbers 
     1.0000   1.0000   1.0000   1.0000   1.0000   1.0000   1.0000   1.0000
     1.0000   1.0000   1.0000   1.0000   1.0000   1.0000   1.0000   1.0000
     1.0000   1.0000   1.0000   1.0000   1.0000   1.0000   1.0000   1.0000
     1.0000   1.0000   1.0000   1.0000   1.0000   1.0000   1.0000   1.0000
     1.0000   1.0000   1.0000   1.0000   1.0000   1.0000   1.0000   1.0000
     1.0000   1.0000   1.0000   1.0000   1.0000   1.0000   1.0000   1.0000
     1.0000   1.0000   1.0000   1.0000   1.0000   1.0000   1.0000   1.0000
     1.0000   1.0000   0.0806   0.0806  -0.0000  -0.0000  -0.0000  -0.0000
    -0.0000  -0.0000  -0.0000  -0.0000  -0.0000  -0.0000

          k = 0.1429 0.4286 0.3166 (  5376 PWs)   bands (ev):

   -79.3840 -79.3840 -79.3838 -79.3838 -46.2283 -46.2283 -46.2263 -46.2263
   -32.7862 -32.7862 -32.7671 -32.7671 -32.6382 -32.6382 -32.6247 -32.6247
    -6.1347  -6.1347  -5.8667  -5.8667  -5.4354  -5.4354  -5.3025  -5.3025
     5.4102   5.4102   5.8859   5.8859   6.2617   6.2617   6.3602   6.3602
     6.9870   6.9870   7.3614   7.3614   8.0390   8.0390   8.3577   8.3577
     8.6212   8.6212   9.0624   9.0624  10.1957  10.1957  10.5213  10.5213
    11.9717  11.9717  12.2257  12.2257  12.5828  12.5828  12.8598  12.8598
    13.5041  13.5041  13.9235  13.9235  16.0116  16.0116  16.2953  16.2953
    17.3213  17.3213  17.9104  17.9104  21.4789  21.4789

     occupation numbers 
     1.0000   1.0000   1.0000   1.0000   1.0000   1.0000   1.0000   1.0000
     1.0000   1.0000   1.0000   1.0000   1.0000   1.0000   1.0000   1.0000
     1.0000   1.0000   1.0000   1.0000   1.0000   1.0000   1.0000   1.0000
     1.0000   1.0000   1.0000   1.0000   1.0000   1.0000   1.0000   1.0000
     1.0000   1.0000   1.0000   1.0000   1.0000   1.0000   1.0000   1.0000
     1.0000   1.0000   1.0000   1.0000   1.0000   1.0000   1.0000   1.0000
     1.0000   1.0000   1.0000   1.0000   1.0000   1.0000   1.0000   1.0000
     1.0000   1.0000   0.1625   0.1625  -0.0000  -0.0000  -0.0000  -0.0000
    -0.0000  -0.0000  -0.0000  -0.0000  -0.0000  -0.0000

          k = 0.1429 0.4286 0.4749 (  5378 PWs)   bands (ev):

   -79.3832 -79.3832 -79.3831 -79.3831 -46.2320 -46.2320 -46.2301 -46.2301
   -32.8086 -32.8086 -32.7838 -32.7838 -32.6439 -32.6439 -32.6272 -32.6272
    -5.8961  -5.8961  -5.7335  -5.7335  -5.4784  -5.4784  -5.3488  -5.3488
     5.6664   5.6664   5.8826   5.8826   6.1901   6.1901   6.3048   6.3048
     6.8836   6.8836   7.1830   7.1830   8.3164   8.3164   8.6005   8.6005
     8.9438   8.9438   9.0950   9.0950  10.0001  10.0001  10.5436  10.5436
    11.5785  11.5785  12.0781  12.0781  12.3452  12.3452  12.6613  12.6613
    13.7516  13.7516  14.1780  14.1780  15.3869  15.3869  15.6880  15.6880
    17.6581  17.6581  18.0846  18.0846  22.1964  22.1964

     occupation numbers 
     1.0000   1.0000   1.0000   1.0000   1.0000   1.0000   1.0000   1.0000
     1.0000   1.0000   1.0000   1.0000   1.0000   1.0000   1.0000   1.0000
     1.0000   1.0000   1.0000   1.0000   1.0000   1.0000   1.0000   1.0000
     1.0000   1.0000   1.0000   1.0000   1.0000   1.0000   1.0000   1.0000
     1.0000   1.0000   1.0000   1.0000   1.0000   1.0000   1.0000   1.0000
     1.0000   1.0000   1.0000   1.0000   1.0000   1.0000   1.0000   1.0000
     1.0000   1.0000   1.0000   1.0000   1.0000   1.0000   1.0000   1.0000
     1.0060   1.0060  -0.0000  -0.0000  -0.0000  -0.0000  -0.0000  -0.0000
    -0.0000  -0.0000  -0.0000  -0.0000  -0.0000  -0.0000

          k = 0.1429 0.4286 0.6332 (  5358 PWs)   bands (ev):

   -79.3826 -79.3826 -79.3826 -79.3826 -46.2344 -46.2344 -46.2326 -46.2326
   -32.8240 -32.8240 -32.7968 -32.7968 -32.6456 -32.6456 -32.6278 -32.6278
    -5.8184  -5.8184  -5.7652  -5.7652  -5.4114  -5.4114  -5.2546  -5.2546
     5.5341   5.5341   5.6492   5.6492   6.1052   6.1052   6.2022   6.2022
     7.2852   7.2852   7.7348   7.7348   8.3078   8.3078   8.5285   8.5285
     9.0213   9.0213   9.3395   9.3395  10.1179  10.1179  10.6718  10.6718
    11.2178  11.2178  11.7199  11.7199  11.9808  11.9808  12.3404  12.3404
    13.9815  13.9815  14.4009  14.4009  15.0827  15.0827  15.3534  15.3534
    17.8947  17.8947  18.2278  18.2278  22.8714  22.8714

     occupation numbers 
     1.0000   1.0000   1.0000   1.0000   1.0000   1.0000   1.0000   1.0000
     1.0000   1.0000   1.0000   1.0000   1.0000   1.0000   1.0000   1.0000
     1.0000   1.0000   1.0000   1.0000   1.0000   1.0000   1.0000   1.0000
     1.0000   1.0000   1.0000   1.0000   1.0000   1.0000   1.0000   1.0000
     1.0000   1.0000   1.0000   1.0000   1.0000   1.0000   1.0000   1.0000
     1.0000   1.0000   1.0000   1.0000   1.0000   1.0000   1.0000   1.0000
     1.0000   1.0000   1.0000   1.0000   1.0000   1.0000   1.0000   1.0000
    -0.0347  -0.0347  -0.0000  -0.0000  -0.0000  -0.0000  -0.0000  -0.0000
    -0.0000  -0.0000  -0.0000  -0.0000  -0.0000  -0.0000

          k = 0.2857 0.2857 0.0000 (  5393 PWs)   bands (ev):

   -79.3851 -79.3851 -79.3846 -79.3846 -46.2248 -46.2248 -46.2206 -46.2206
   -32.7610 -32.7610 -32.7555 -32.7555 -32.6233 -32.6233 -32.6176 -32.6176
    -6.6298  -6.6298  -6.0684  -6.0684  -5.2879  -5.2879  -4.9782  -4.9782
[...]
     1.0000   1.0000   1.0000   1.0000   1.0000   1.0000   1.0000   1.0000
     1.0000   1.0000   1.0294   1.0294  -0.0000  -0.0000  -0.0000  -0.0000
    -0.0000  -0.0000  -0.0000  -0.0000  -0.0000  -0.0000

          k = 0.2857 0.4286 0.4749 (  5361 PWs)   bands (ev):

   -79.3832 -79.3832 -79.3831 -79.3831 -46.2317 -46.2317 -46.2304 -46.2304
   -32.8053 -32.8053 -32.7876 -32.7876 -32.6415 -32.6415 -32.6295 -32.6295
    -5.8703  -5.8703  -5.7613  -5.7613  -5.4492  -5.4492  -5.3516  -5.3516
     5.4455   5.4455   5.6428   5.6428   6.1604   6.1604   6.2879   6.2879
     6.9366   6.9366   7.2420   7.2420   8.4975   8.4975   8.6525   8.6525
     9.0777   9.0777   9.3332   9.3332   9.9936   9.9936  10.4653  10.4653
    11.8669  11.8669  12.0834  12.0834  12.3579  12.3579  12.7134  12.7134
    13.4838  13.4838  13.9411  13.9411  15.6706  15.6706  16.0903  16.0903
    17.3087  17.3087  17.7508  17.7508  22.3986  22.3987

     occupation numbers 
     1.0000   1.0000   1.0000   1.0000   1.0000   1.0000   1.0000   1.0000
     1.0000   1.0000   1.0000   1.0000   1.0000   1.0000   1.0000   1.0000
     1.0000   1.0000   1.0000   1.0000   1.0000   1.0000   1.0000   1.0000
     1.0000   1.0000   1.0000   1.0000   1.0000   1.0000   1.0000   1.0000
     1.0000   1.0000   1.0000   1.0000   1.0000   1.0000   1.0000   1.0000
     1.0000   1.0000   1.0000   1.0000   1.0000   1.0000   1.0000   1.0000
     1.0000   1.0000   1.0000   1.0000   1.0000   1.0000   1.0000   1.0000
     1.0000   1.0000   0.0395   0.0395  -0.0000  -0.0000  -0.0000  -0.0000
    -0.0000  -0.0000  -0.0000  -0.0000  -0.0000  -0.0000

          k = 0.2857 0.4286 0.6332 (  5360 PWs)   bands (ev):

   -79.3826 -79.3826 -79.3826 -79.3826 -46.2341 -46.2341 -46.2329 -46.2329
   -32.8201 -32.8201 -32.8007 -32.8007 -32.6433 -32.6433 -32.6306 -32.6306
    -5.7677  -5.7677  -5.6929  -5.6929  -5.4634  -5.4634  -5.3169  -5.3169
     5.5884   5.5884   5.7536   5.7536   6.0253   6.0253   6.2180   6.2180
     6.8867   6.8867   7.4264   7.4264   8.2479   8.2479   8.3863   8.3863
     9.3517   9.3517   9.5786   9.5786  10.2562  10.2562  10.7114  10.7114
    11.5856  11.5856  11.9318  11.9318  12.0722  12.0722  12.5097  12.5097
    13.6231  13.6231  14.1450  14.1450  15.3311  15.3311  15.7868  15.7868
    17.4051  17.4051  17.8880  17.8880  22.9124  22.9124

     occupation numbers 
     1.0000   1.0000   1.0000   1.0000   1.0000   1.0000   1.0000   1.0000
     1.0000   1.0000   1.0000   1.0000   1.0000   1.0000   1.0000   1.0000
     1.0000   1.0000   1.0000   1.0000   1.0000   1.0000   1.0000   1.0000
     1.0000   1.0000   1.0000   1.0000   1.0000   1.0000   1.0000   1.0000
     1.0000   1.0000   1.0000   1.0000   1.0000   1.0000   1.0000   1.0000
     1.0000   1.0000   1.0000   1.0000   1.0000   1.0000   1.0000   1.0000
     1.0000   1.0000   1.0000   1.0000   1.0000   1.0000   1.0000   1.0000
     1.0000   1.0000  -0.0000  -0.0000  -0.0000  -0.0000  -0.0000  -0.0000
    -0.0000  -0.0000  -0.0000  -0.0000  -0.0000  -0.0000

          k = 0.4286 0.4286 0.0000 (  5408 PWs)   bands (ev):

   -79.3849 -79.3849 -79.3848 -79.3848 -46.2230 -46.2230 -46.2224 -46.2224
   -32.7597 -32.7597 -32.7589 -32.7589 -32.6202 -32.6202 -32.6193 -32.6193
    -6.4342  -6.4342  -6.3637  -6.3637  -5.0805  -5.0805  -5.0271  -5.0271
     4.4020   4.4020   4.5661   4.5661   6.0162   6.0162   6.0431   6.0431
     8.2265   8.2265   8.6545   8.6545   8.7643   8.7643   9.1913   9.1913
     9.4579   9.4579   9.6017   9.6017   9.9725   9.9725  10.4239  10.4239
    11.1428  11.1428  11.4241  11.4241  11.7752  11.7752  11.9234  11.9234
    13.9612  13.9612  14.0823  14.0823  16.1851  16.1851  16.4695  16.4695
    17.8303  17.8303  17.9324  17.9324  21.9193  21.9193

     occupation numbers 
     1.0000   1.0000   1.0000   1.0000   1.0000   1.0000   1.0000   1.0000
     1.0000   1.0000   1.0000   1.0000   1.0000   1.0000   1.0000   1.0000
     1.0000   1.0000   1.0000   1.0000   1.0000   1.0000   1.0000   1.0000
     1.0000   1.0000   1.0000   1.0000   1.0000   1.0000   1.0000   1.0000
     1.0000   1.0000   1.0000   1.0000   1.0000   1.0000   1.0000   1.0000
     1.0000   1.0000   1.0000   1.0000   1.0000   1.0000   1.0000   1.0000
     1.0000   1.0000   1.0000   1.0000   1.0000   1.0000   1.0000   1.0000
    -0.0249  -0.0249  -0.0003  -0.0003  -0.0000  -0.0000  -0.0000  -0.0000
    -0.0000  -0.0000  -0.0000  -0.0000  -0.0000  -0.0000

          k = 0.4286 0.4286 0.1583 (  5399 PWs)   bands (ev):

   -79.3846 -79.3846 -79.3846 -79.3846 -46.2243 -46.2243 -46.2237 -46.2237
   -32.7657 -32.7657 -32.7621 -32.7621 -32.6247 -32.6247 -32.6222 -32.6222
    -6.3440  -6.3440  -6.2755  -6.2755  -5.1359  -5.1359  -5.0844  -5.0844
     4.5333   4.5333   4.6932   4.6932   6.0170   6.0170   6.0474   6.0474
     8.3584   8.3584   8.6417   8.6417   8.8438   8.8438   8.9928   8.9928
     9.1392   9.1392   9.4330   9.4330   9.7528   9.7528  10.0139  10.0139
    11.4698  11.4698  11.6995  11.6995  12.0781  12.0781  12.1730  12.1730
    13.8416  13.8416  13.9534  13.9534  16.3496  16.3496  16.5919  16.5919
    17.5406  17.5406  17.6504  17.6504  22.0890  22.0891

     occupation numbers 
     1.0000   1.0000   1.0000   1.0000   1.0000   1.0000   1.0000   1.0000
     1.0000   1.0000   1.0000   1.0000   1.0000   1.0000   1.0000   1.0000
     1.0000   1.0000   1.0000   1.0000   1.0000   1.0000   1.0000   1.0000
     1.0000   1.0000   1.0000   1.0000   1.0000   1.0000   1.0000   1.0000
     1.0000   1.0000   1.0000   1.0000   1.0000   1.0000   1.0000   1.0000
     1.0000   1.0000   1.0000   1.0000   1.0000   1.0000   1.0000   1.0000
     1.0000   1.0000   1.0000   1.0000   1.0000   1.0000   1.0000   1.0000
     0.9792   0.9792  -0.0084  -0.0084  -0.0000  -0.0000  -0.0000  -0.0000
    -0.0000  -0.0000  -0.0000  -0.0000  -0.0000  -0.0000

          k = 0.4286 0.4286 0.3166 (  5378 PWs)   bands (ev):

   -79.3839 -79.3839 -79.3839 -79.3839 -46.2276 -46.2276 -46.2270 -46.2270
   -32.7810 -32.7810 -32.7744 -32.7744 -32.6330 -32.6330 -32.6284 -32.6284
    -6.1100  -6.1100  -6.0496  -6.0496  -5.2712  -5.2712  -5.2246  -5.2246
     4.8905   4.8905   5.0305   5.0305   6.0543   6.0543   6.0955   6.0955
     7.8533   7.8533   8.0628   8.0628   8.6530   8.6530   9.0123   9.0123
     9.2131   9.2131   9.3846   9.3846   9.5570   9.5570   9.8872   9.8872
    11.8427  11.8427  12.0242  12.0242  12.5087  12.5087  12.6064  12.6064
    13.5438  13.5438  13.6553  13.6553  16.4997  16.4997  16.6802  16.6802
    17.0842  17.0842  17.2595  17.2595  22.4020  22.4022

     occupation numbers 
     1.0000   1.0000   1.0000   1.0000   1.0000   1.0000   1.0000   1.0000
     1.0000   1.0000   1.0000   1.0000   1.0000   1.0000   1.0000   1.0000
     1.0000   1.0000   1.0000   1.0000   1.0000   1.0000   1.0000   1.0000
     1.0000   1.0000   1.0000   1.0000   1.0000   1.0000   1.0000   1.0000
     1.0000   1.0000   1.0000   1.0000   1.0000   1.0000   1.0000   1.0000
     1.0000   1.0000   1.0000   1.0000   1.0000   1.0000   1.0000   1.0000
     1.0000   1.0000   1.0000   1.0000   1.0000   1.0000   1.0000   1.0000
     1.0000   1.0000   1.0000   1.0000  -0.0000  -0.0000  -0.0000  -0.0000
    -0.0000  -0.0000  -0.0000  -0.0000  -0.0000  -0.0000

          k = 0.4286 0.4286 0.4749 (  5356 PWs)   bands (ev):

   -79.3831 -79.3831 -79.3831 -79.3831 -46.2314 -46.2314 -46.2308 -46.2308
   -32.8009 -32.8009 -32.7923 -32.7923 -32.6384 -32.6384 -32.6326 -32.6326
    -5.8357  -5.8357  -5.7978  -5.7978  -5.4128  -5.4128  -5.3663  -5.3663
     5.3525   5.3525   5.4315   5.4315   6.1297   6.1297   6.1926   6.1926
     7.1205   7.1205   7.2523   7.2523   8.5572   8.5572   8.6403   8.6403
     9.2848   9.2848   9.4177   9.4177  10.1310  10.1310  10.3596  10.3596
    11.9630  11.9630  12.0485  12.0485  12.5528  12.5528  12.9379  12.9379
    13.2133  13.2133  13.5994  13.5994  16.0824  16.0824  16.3558  16.3558
    17.0558  17.0558  17.3258  17.3258  22.7259  22.7263

     occupation numbers 
     1.0000   1.0000   1.0000   1.0000   1.0000   1.0000   1.0000   1.0000
     1.0000   1.0000   1.0000   1.0000   1.0000   1.0000   1.0000   1.0000
     1.0000   1.0000   1.0000   1.0000   1.0000   1.0000   1.0000   1.0000
     1.0000   1.0000   1.0000   1.0000   1.0000   1.0000   1.0000   1.0000
     1.0000   1.0000   1.0000   1.0000   1.0000   1.0000   1.0000   1.0000
     1.0000   1.0000   1.0000   1.0000   1.0000   1.0000   1.0000   1.0000
     1.0000   1.0000   1.0000   1.0000   1.0000   1.0000   1.0000   1.0000
     1.0000   1.0000   1.0000   1.0000  -0.0000  -0.0000  -0.0000  -0.0000
    -0.0000  -0.0000  -0.0000  -0.0000  -0.0000  -0.0000

          k = 0.4286 0.4286 0.6332 (  5375 PWs)   bands (ev):

   -79.3826 -79.3826 -79.3826 -79.3826 -46.2338 -46.2338 -46.2332 -46.2332
   -32.8151 -32.8151 -32.8057 -32.8057 -32.6402 -32.6402 -32.6340 -32.6340
    -5.6961  -5.6961  -5.6367  -5.6367  -5.4997  -5.4997  -5.4014  -5.4014
     5.6519   5.6519   5.7375   5.7375   6.0744   6.0744   6.3032   6.3032
     6.6693   6.6693   6.9959   6.9959   8.2668   8.2668   8.3425   8.3425
     9.5491   9.5491   9.6353   9.6353  10.5020  10.5020  10.6738  10.6738
    11.9015  11.9015  11.9523  11.9523  12.3342  12.3342  12.7391  12.7391
    13.3445  13.3445  13.7470  13.7470  15.7756  15.7756  16.1078  16.1078
    17.0421  17.0421  17.3843  17.3843  22.9944  22.9945

     occupation numbers 
     1.0000   1.0000   1.0000   1.0000   1.0000   1.0000   1.0000   1.0000
     1.0000   1.0000   1.0000   1.0000   1.0000   1.0000   1.0000   1.0000
     1.0000   1.0000   1.0000   1.0000   1.0000   1.0000   1.0000   1.0000
     1.0000   1.0000   1.0000   1.0000   1.0000   1.0000   1.0000   1.0000
     1.0000   1.0000   1.0000   1.0000   1.0000   1.0000   1.0000   1.0000
     1.0000   1.0000   1.0000   1.0000   1.0000   1.0000   1.0000   1.0000
     1.0000   1.0000   1.0000   1.0000   1.0000   1.0000   1.0000   1.0000
     1.0000   1.0000   1.0048   1.0048  -0.0000  -0.0000  -0.0000  -0.0000
    -0.0000  -0.0000  -0.0000  -0.0000  -0.0000  -0.0000

     the Fermi energy is    13.8933 ev

!    total energy              =    -553.08035309 Ry
     estimated scf accuracy    <          1.9E-11 Ry
     smearing contrib. (-TS)   =       0.00009031 Ry
     internal energy E=F+TS    =    -553.08044340 Ry

     The total energy is F=E-TS. E is the sum of the following terms:
     one-electron contribution =    -190.91147069 Ry
     hartree contribution      =     122.73210279 Ry
     xc contribution           =     -69.91506498 Ry
     ewald contribution        =    -414.98601052 Ry

     convergence has been achieved in  10 iterations

     Forces acting on atoms (cartesian axes, Ry/au):

     atom    1 type  2   force =     0.00000000    0.00000000    0.00000000
     atom    2 type  2   force =     0.00000000    0.00000000    0.00000000
     atom    3 type  1   force =     0.00091521   -0.00091521    0.00000000
     atom    4 type  1   force =    -0.00091521   -0.00091521   -0.00000000
     atom    5 type  1   force =     0.00091521    0.00091521   -0.00000000
     atom    6 type  1   force =    -0.00091521    0.00091521    0.00000000
     The non-local contrib.  to forces
     atom    1 type  2   force =     0.00000000    0.00000000   -0.00000000
     atom    2 type  2   force =     0.00000000    0.00000000    0.00000000
     atom    3 type  1   force =    -0.05386238    0.05386238   -0.00000000
     atom    4 type  1   force =     0.05386238    0.05386238    0.00000000
     atom    5 type  1   force =    -0.05386238   -0.05386238    0.00000000
     atom    6 type  1   force =     0.05386238   -0.05386238   -0.00000000
     The ionic contribution  to forces
     atom    1 type  2   force =    -0.00000000   -0.00000000    0.00000000
     atom    2 type  2   force =     0.00000000    0.00000000   -0.00000000
     atom    3 type  1   force =     1.42937233   -1.42937233    0.00000000
     atom    4 type  1   force =    -1.42937233   -1.42937233   -0.00000000
     atom    5 type  1   force =     1.42937233    1.42937233   -0.00000000
     atom    6 type  1   force =    -1.42937233    1.42937233    0.00000000
     The local contribution  to forces
     atom    1 type  2   force =     0.00000000   -0.00000000    0.00000000
     atom    2 type  2   force =     0.00000000    0.00000000    0.00000000
     atom    3 type  1   force =    -1.37459417    1.37459417    0.00000000
     atom    4 type  1   force =     1.37459417    1.37459417    0.00000000
     atom    5 type  1   force =    -1.37459417   -1.37459417    0.00000000
     atom    6 type  1   force =     1.37459417   -1.37459417    0.00000000
     The core correction contribution to forces
     atom    1 type  2   force =     0.00000000    0.00000000    0.00000000
     atom    2 type  2   force =     0.00000000    0.00000000    0.00000000
     atom    3 type  1   force =     0.00000000    0.00000000    0.00000000
     atom    4 type  1   force =     0.00000000    0.00000000    0.00000000
     atom    5 type  1   force =     0.00000000    0.00000000    0.00000000
     atom    6 type  1   force =     0.00000000    0.00000000    0.00000000
     The Hubbard contrib.    to forces
     atom    1 type  2   force =     0.00000000    0.00000000    0.00000000
     atom    2 type  2   force =     0.00000000    0.00000000    0.00000000
     atom    3 type  1   force =     0.00000000    0.00000000    0.00000000
     atom    4 type  1   force =     0.00000000    0.00000000    0.00000000
     atom    5 type  1   force =     0.00000000    0.00000000    0.00000000
     atom    6 type  1   force =     0.00000000    0.00000000    0.00000000
     The SCF correction term to forces
     atom    1 type  2   force =    -0.00000000    0.00000000   -0.00000000
     atom    2 type  2   force =     0.00000000    0.00000000    0.00000000
     atom    3 type  1   force =    -0.00000058    0.00000058    0.00000000
     atom    4 type  1   force =     0.00000058    0.00000058    0.00000000
     atom    5 type  1   force =    -0.00000058   -0.00000058    0.00000000
     atom    6 type  1   force =     0.00000058   -0.00000058    0.00000000

     Total force =     0.002589     Total SCF correction =     0.000002


     Computing stress (Cartesian axis) and pressure

          total   stress  (Ry/bohr**3)                   (kbar)     P=      -20.37
  -0.00011786   0.00000000   0.00000000          -17.34        0.00        0.00
   0.00000000  -0.00011786   0.00000000            0.00      -17.34        0.00
   0.00000000   0.00000000  -0.00017962            0.00        0.00      -26.42

     kinetic stress (kbar)  48451.32      0.00      0.00
                                0.00  48451.32      0.00
                                0.00      0.00  47534.06

     local   stress (kbar) -12679.53      0.00     -0.00
                                0.00 -12679.53     -0.00
                               -0.00     -0.00 -44414.06

     nonloc. stress (kbar)  14525.96      0.00      0.00
                                0.00  14525.96      0.00
                                0.00      0.00  14742.74

     hartree stress (kbar)   9609.38     -0.00      0.00
                               -0.00   9609.38     -0.00
                                0.00     -0.00  21381.76

     exc-cor stress (kbar)  -7288.26     -0.00      0.00
                               -0.00  -7288.26      0.00
                                0.00      0.00  -7263.48

     corecor stress (kbar)      0.00      0.00      0.00
                                0.00      0.00      0.00
                                0.00      0.00      0.00

     ewald   stress (kbar) -52636.21     -0.00     -0.00
                               -0.00 -52636.21     -0.00
                               -0.00     -0.00 -32007.45

     hubbard stress (kbar)      0.00      0.00      0.00
                                0.00      0.00      0.00
                                0.00      0.00      0.00

     DFT-D   stress (kbar)      0.00      0.00      0.00
                                0.00      0.00      0.00
                                0.00      0.00      0.00

     XDM     stress (kbar)      0.00      0.00      0.00
                                0.00      0.00      0.00
                                0.00      0.00      0.00

     dft-nl  stress (kbar)      0.00      0.00      0.00
                                0.00      0.00      0.00
                                0.00      0.00      0.00

     TS-vdW  stress (kbar)      0.00      0.00      0.00
                                0.00      0.00      0.00
                                0.00      0.00      0.00


                                0.00      0.00      0.00
                                0.00      0.00      0.00


                                0.00      0.00      0.00


     Writing all to output data dir tmp/espresso.save/
 
     init_run     :      5.03s CPU      2.61s WALL (       1 calls)
     electrons    :    168.03s CPU     86.06s WALL (       1 calls)
     forces       :      8.71s CPU      4.46s WALL (       1 calls)
     stress       :     12.28s CPU      6.22s WALL (       1 calls)

     Called by init_run:
     wfcinit      :      4.97s CPU      2.56s WALL (       1 calls)
     wfcinit:atom :      0.02s CPU      0.01s WALL (      50 calls)
     wfcinit:wfcr :      4.84s CPU      2.48s WALL (      50 calls)
     potinit      :      0.02s CPU      0.01s WALL (       1 calls)
     hinit0       :      0.03s CPU      0.03s WALL (       1 calls)

     Called by electrons:
     c_bands      :    153.71s CPU     78.70s WALL (      10 calls)
     sum_band     :     14.16s CPU      7.25s WALL (      10 calls)
     v_of_rho     :      0.05s CPU      0.03s WALL (      11 calls)
     v_h          :      0.01s CPU      0.00s WALL (      11 calls)
     v_xc         :      0.04s CPU      0.02s WALL (      11 calls)
     mix_rho      :      0.05s CPU      0.02s WALL (      10 calls)

     Called by c_bands:
     init_us_2    :      0.45s CPU      0.24s WALL (    1150 calls)
     init_us_2:cp :      0.44s CPU      0.24s WALL (    1150 calls)
     cegterg      :    141.93s CPU     72.69s WALL (     500 calls)

     Called by sum_band:
     sum_band:wei :      0.11s CPU      0.06s WALL (      10 calls)
     sum_band:loo :     14.02s CPU      7.18s WALL (      10 calls)
     sum_band:buf :      0.08s CPU      0.04s WALL (     500 calls)
     sum_band:ini :      0.14s CPU      0.07s WALL (     500 calls)

     Called by *egterg:
     cdiaghg      :     19.92s CPU     10.12s WALL (    1595 calls)
     cegterg:over :      8.90s CPU      4.52s WALL (    1095 calls)
     cegterg:upda :      6.92s CPU      3.52s WALL (    1095 calls)
     cegterg:last :     12.22s CPU      6.21s WALL (    1000 calls)
     cdiaghg:chol :      0.94s CPU      0.48s WALL (    1595 calls)
     cdiaghg:inve :      0.15s CPU      0.07s WALL (    1595 calls)
     cdiaghg:para :      2.08s CPU      1.06s WALL (    3190 calls)
     h_psi        :     95.02s CPU     48.88s WALL (    1645 calls)
     g_psi        :      0.14s CPU      0.07s WALL (    1095 calls)

     Called by h_psi:
     h_psi:calbec :     11.47s CPU      6.01s WALL (    1645 calls)
     vloc_psi     :     67.01s CPU     34.46s WALL (    1645 calls)
     add_vuspsi   :     16.33s CPU      8.31s WALL (    1645 calls)

     General routines
     calbec       :     14.42s CPU      7.55s WALL (    1895 calls)
     fft          :      0.06s CPU      0.03s WALL (     150 calls)
     ffts         :      0.01s CPU      0.01s WALL (      40 calls)
     fftw         :     75.87s CPU     38.99s WALL (  429332 calls)
 
     Parallel routines
 
     PWSCF        :   3m19.91s CPU   1m44.00s WALL

 
   This run was terminated on:  11:19:32  10Apr2022            

=------------------------------------------------------------------------------=
   JOB DONE.
=------------------------------------------------------------------------------=
