
     Program PWSCF v.7.0 starts on 10Apr2022 at 11:55:51 

     This program is part of the open-source Quantum ESPRESSO suite
     for quantum simulation of materials; please cite
         "P. Giannozzi et al., J. Phys.:Condens. Matter 21 395502 (2009);
         "P. Giannozzi et al., J. Phys.:Condens. Matter 29 465901 (2017);
         "P. Giannozzi et al., J. Chem. Phys. 152 154105 (2020);
          URL http://www.quantum-espresso.org", 
     in publications or presentations arising from this work. More details at
     http://www.quantum-espresso.org/quote

     Parallel version (MPI & OpenMP), running on      64 processor cores
     Number of MPI processes:                32
     Threads/MPI process:                     2

     MPI processes distributed on     1 nodes
     R & G space division:  proc/nbgrp/npool/nimage =      32
     230172 MiB available memory on the printing compute node when the environment starts
 
     Reading input from kpoints_2211.pwi
Warning: card &CELL ignored
Warning: card / ignored

     Current dimensions of program PWSCF are:
     Max number of different atomic species (ntypx) = 10
     Max number of k-points (npk) =  40000
     Max angular momentum in pseudopotentials (lmaxx) =  4

     Subspace diagonalization in iterative solution of the eigenvalue problem:
     one sub-group per band group will be used
     scalapack distributed-memory algorithm (size of sub-group:  5*  5 procs)

 
     Parallelization info
     --------------------
     sticks:   dense  smooth     PW     G-vecs:    dense   smooth      PW
     Min          58      58     17                 1342     1342     210
     Max          59      59     19                 1345     1345     212
     Sum        1885    1885    553                42999    42999    6747
 
     Using Slab Decomposition
 

     Title: 
     IrO2 Unit Cell                                                             


     bravais-lattice index     =            6
     lattice parameter (alat)  =       8.5888  a.u.
     unit-cell volume          =     444.6868 (a.u.)^3
     number of atoms/cell      =            6
     number of atomic types    =            2
     number of electrons       =        58.00
     number of Kohn-Sham states=           70
     kinetic-energy cutoff     =      80.0000  Ry
     charge density cutoff     =     320.0000  Ry
     scf convergence threshold =      1.0E-09
     mixing beta               =       0.7000
     number of iterations used =            8  plain     mixing
     Exchange-correlation= PBE
                           (   1   4   3   4   0   0   0)
     Non magnetic calculation with spin-orbit


     celldm(1)=   8.588800  celldm(2)=   0.000000  celldm(3)=   0.701870
     celldm(4)=   0.000000  celldm(5)=   0.000000  celldm(6)=   0.000000

     crystal axes: (cart. coord. in units of alat)
               a(1) = (   1.000000   0.000000   0.000000 )  
               a(2) = (   0.000000   1.000000   0.000000 )  
               a(3) = (   0.000000   0.000000   0.701870 )  

     reciprocal axes: (cart. coord. in units 2 pi/alat)
               b(1) = (  1.000000  0.000000  0.000000 )  
               b(2) = (  0.000000  1.000000  0.000000 )  
               b(3) = (  0.000000  0.000000  1.424765 )  


     PseudoPot. # 1 for O  read from file:
     ../../XX_PSEUDO/O_ONCV_PBE_fr.upf
     MD5 check sum: 59c925217d3b58c6d762355590b68b09
     Pseudo is Norm-conserving, Zval =  6.0
     Generated using ONCVPSP code by D. R. Hamann
     Using radial grid of  936 points,  6 beta functions with: 
                l(1) =   0
                l(2) =   0
                l(3) =   1
                l(4) =   1
                l(5) =   1
                l(6) =   1

     PseudoPot. # 2 for Ir read from file:
     ../../XX_PSEUDO/Ir_ONCV_PBE_fr.upf
     MD5 check sum: 924e909c4146afa09f62ee3401806954
     Pseudo is Norm-conserving, Zval = 17.0
     Generated using ONCVPSP code by D. R. Hamann
     Using radial grid of 1310 points, 14 beta functions with: 
                l(1) =   0
                l(2) =   0
                l(3) =   1
                l(4) =   1
                l(5) =   1
                l(6) =   1
                l(7) =   2
                l(8) =   2
                l(9) =   2
               l(10) =   2
               l(11) =   3
               l(12) =   3
               l(13) =   3
               l(14) =   3

     atomic species   valence    mass     pseudopotential
        O              6.00    15.99900     O ( 1.00)
        Ir            17.00   192.21700     Ir( 1.00)

     16 Sym. Ops., with inversion, found ( 8 have fractional translation)


                                    s                        frac. trans.

      isym =  1     identity                                     

 cryst.   s( 1) = (     1          0          0      )
                  (     0          1          0      )
                  (     0          0          1      )

 cart.    s( 1) = (  1.0000000  0.0000000  0.0000000 )
                  (  0.0000000  1.0000000  0.0000000 )
                  (  0.0000000  0.0000000  1.0000000 )


      isym =  2     180 deg rotation - cart. axis [0,0,1]        

 cryst.   s( 2) = (    -1          0          0      )
                  (     0         -1          0      )
                  (     0          0          1      )

 cart.    s( 2) = ( -1.0000000  0.0000000  0.0000000 )
                  (  0.0000000 -1.0000000  0.0000000 )
                  (  0.0000000  0.0000000  1.0000000 )


      isym =  3     180 deg rotation - cart. axis [0,1,0]        

 cryst.   s( 3) = (    -1          0          0      )    f =(  0.5000000 )
                  (     0          1          0      )       ( -0.5000000 )
                  (     0          0         -1      )       (  0.5000000 )

 cart.    s( 3) = ( -1.0000000  0.0000000  0.0000000 )    f =(  0.5000000 )
                  (  0.0000000  1.0000000  0.0000000 )       ( -0.5000000 )
                  (  0.0000000  0.0000000 -1.0000000 )       (  0.3509351 )


      isym =  4     180 deg rotation - cart. axis [1,0,0]        

 cryst.   s( 4) = (     1          0          0      )    f =( -0.5000000 )
                  (     0         -1          0      )       (  0.5000000 )
                  (     0          0         -1      )       (  0.5000000 )

 cart.    s( 4) = (  1.0000000  0.0000000  0.0000000 )    f =( -0.5000000 )
                  (  0.0000000 -1.0000000  0.0000000 )       (  0.5000000 )
                  (  0.0000000  0.0000000 -1.0000000 )       (  0.3509351 )


      isym =  5     180 deg rotation - cart. axis [1,1,0]        

 cryst.   s( 5) = (     0          1          0      )
                  (     1          0          0      )
                  (     0          0         -1      )

 cart.    s( 5) = (  0.0000000  1.0000000  0.0000000 )
                  (  1.0000000  0.0000000  0.0000000 )
                  (  0.0000000  0.0000000 -1.0000000 )


      isym =  6     180 deg rotation - cart. axis [1,-1,0]       

 cryst.   s( 6) = (     0         -1          0      )
                  (    -1          0          0      )
                  (     0          0         -1      )

 cart.    s( 6) = (  0.0000000 -1.0000000  0.0000000 )
                  ( -1.0000000  0.0000000  0.0000000 )
                  (  0.0000000  0.0000000 -1.0000000 )


      isym =  7      90 deg rotation - cart. axis [0,0,-1]       

 cryst.   s( 7) = (     0         -1          0      )    f =( -0.5000000 )
                  (     1          0          0      )       (  0.5000000 )
                  (     0          0          1      )       ( -0.5000000 )

 cart.    s( 7) = (  0.0000000  1.0000000  0.0000000 )    f =( -0.5000000 )
                  ( -1.0000000  0.0000000  0.0000000 )       (  0.5000000 )
                  (  0.0000000  0.0000000  1.0000000 )       ( -0.3509351 )


      isym =  8      90 deg rotation - cart. axis [0,0,1]        

 cryst.   s( 8) = (     0          1          0      )    f =(  0.5000000 )
                  (    -1          0          0      )       ( -0.5000000 )
                  (     0          0          1      )       ( -0.5000000 )

 cart.    s( 8) = (  0.0000000 -1.0000000  0.0000000 )    f =(  0.5000000 )
                  (  1.0000000  0.0000000  0.0000000 )       ( -0.5000000 )
                  (  0.0000000  0.0000000  1.0000000 )       ( -0.3509351 )


      isym =  9     inversion                                    

 cryst.   s( 9) = (    -1          0          0      )
                  (     0         -1          0      )
                  (     0          0         -1      )

 cart.    s( 9) = ( -1.0000000  0.0000000  0.0000000 )
                  (  0.0000000 -1.0000000  0.0000000 )
                  (  0.0000000  0.0000000 -1.0000000 )


      isym = 10     inv. 180 deg rotation - cart. axis [0,0,1]   

 cryst.   s(10) = (     1          0          0      )
                  (     0          1          0      )
                  (     0          0         -1      )

 cart.    s(10) = (  1.0000000  0.0000000  0.0000000 )
                  (  0.0000000  1.0000000  0.0000000 )
                  (  0.0000000  0.0000000 -1.0000000 )


      isym = 11     inv. 180 deg rotation - cart. axis [0,1,0]   

 cryst.   s(11) = (     1          0          0      )    f =( -0.5000000 )
                  (     0         -1          0      )       (  0.5000000 )
                  (     0          0          1      )       ( -0.5000000 )

 cart.    s(11) = (  1.0000000  0.0000000  0.0000000 )    f =( -0.5000000 )
                  (  0.0000000 -1.0000000  0.0000000 )       (  0.5000000 )
                  (  0.0000000  0.0000000  1.0000000 )       ( -0.3509351 )


      isym = 12     inv. 180 deg rotation - cart. axis [1,0,0]   

 cryst.   s(12) = (    -1          0          0      )    f =(  0.5000000 )
                  (     0          1          0      )       ( -0.5000000 )
                  (     0          0          1      )       ( -0.5000000 )

 cart.    s(12) = ( -1.0000000  0.0000000  0.0000000 )    f =(  0.5000000 )
                  (  0.0000000  1.0000000  0.0000000 )       ( -0.5000000 )
                  (  0.0000000  0.0000000  1.0000000 )       ( -0.3509351 )


      isym = 13     inv. 180 deg rotation - cart. axis [1,1,0]   

 cryst.   s(13) = (     0         -1          0      )
                  (    -1          0          0      )
                  (     0          0          1      )

 cart.    s(13) = (  0.0000000 -1.0000000  0.0000000 )
                  ( -1.0000000  0.0000000  0.0000000 )
                  (  0.0000000  0.0000000  1.0000000 )


      isym = 14     inv. 180 deg rotation - cart. axis [1,-1,0]  

 cryst.   s(14) = (     0          1          0      )
                  (     1          0          0      )
                  (     0          0          1      )

 cart.    s(14) = (  0.0000000  1.0000000  0.0000000 )
                  (  1.0000000  0.0000000  0.0000000 )
                  (  0.0000000  0.0000000  1.0000000 )


      isym = 15     inv.  90 deg rotation - cart. axis [0,0,-1]  

 cryst.   s(15) = (     0          1          0      )    f =(  0.5000000 )
                  (    -1          0          0      )       ( -0.5000000 )
                  (     0          0         -1      )       (  0.5000000 )

 cart.    s(15) = (  0.0000000 -1.0000000  0.0000000 )    f =(  0.5000000 )
                  (  1.0000000  0.0000000  0.0000000 )       ( -0.5000000 )
                  (  0.0000000  0.0000000 -1.0000000 )       (  0.3509351 )


      isym = 16     inv.  90 deg rotation - cart. axis [0,0,1]   

 cryst.   s(16) = (     0         -1          0      )    f =( -0.5000000 )
                  (     1          0          0      )       (  0.5000000 )
                  (     0          0         -1      )       (  0.5000000 )

 cart.    s(16) = (  0.0000000  1.0000000  0.0000000 )    f =( -0.5000000 )
                  ( -1.0000000  0.0000000  0.0000000 )       (  0.5000000 )
                  (  0.0000000  0.0000000 -1.0000000 )       (  0.3509351 )


     double point group D_4h(4/mmm)
     there are 14 classes and  4 irreducible representations
     the character table:

       E     -E    2C4   -2C4   C2    2C2' 2C2'' i     -i    2S4   -2S4   s_h 
                               -C2   -2C2' -2C2'                         -s_h 
G_6+   2.00 -2.00  1.41 -1.41  0.00  0.00  0.00  2.00 -2.00  1.41 -1.41  0.00
G_7+   2.00 -2.00 -1.41  1.41  0.00  0.00  0.00  2.00 -2.00 -1.41  1.41  0.00
G_6-   2.00 -2.00  1.41 -1.41  0.00  0.00  0.00 -2.00  2.00 -1.41  1.41  0.00
G_7-   2.00 -2.00 -1.41  1.41  0.00  0.00  0.00 -2.00  2.00  1.41 -1.41  0.00

        2s_v  2s_d
       -2s_v -2s_d
G_6+   0.00  0.00
G_7+   0.00  0.00
G_6-   0.00  0.00
G_7-   0.00  0.00

     the symmetry operations in each class and the name of the first element:

     E             1
          identity                                               
     -E           -1
          identity E                                             
     2C4           7    8
           90 deg rotation - cart. axis [0,0,-1]                 
     -2C4         -7   -8
           90 deg rotation - cart. axis [0,0,-1] E               
      C2  -C2      2   -2
          180 deg rotation - cart. axis [0,0,1]                  
      2C2'-2C2'    3   -3    4   -4
          180 deg rotation - cart. axis [0,1,0]                  
     2C2''-2C2'    5   -5   -6    6
          180 deg rotation - cart. axis [1,1,0]                  
     i             9
          inversion                                              
     -i           -9
          inversion E                                            
     2S4          15   16
          inv.  90 deg rotation - cart. axis [0,0,-1]            
     -2S4        -15  -16
          inv.  90 deg rotation - cart. axis [0,0,-1] E          
      s_h -s_h    10  -10
          inv. 180 deg rotation - cart. axis [0,0,1]             
      2s_v-2s_v   11  -11   12  -12
          inv. 180 deg rotation - cart. axis [0,1,0]             
      2s_d-2s_d   13  -13  -14   14
          inv. 180 deg rotation - cart. axis [1,1,0]             

   Cartesian axes

     site n.     atom                  positions (alat units)
         1           Ir  tau(   1) = (   0.0000000   0.0000000   0.0000000  )
         2           Ir  tau(   2) = (   0.5000000   0.5000000   0.3509351  )
         3           O   tau(   3) = (   0.1916000   0.8084000   0.3509351  )
         4           O   tau(   4) = (   0.3084000   0.3084000   0.0000000  )
         5           O   tau(   5) = (   0.6916000   0.6916000   0.0000000  )
         6           O   tau(   6) = (   0.8084000   0.1916000   0.3509351  )

   Crystallographic axes

     site n.     atom                  positions (cryst. coord.)
         1           Ir  tau(   1) = (  0.0000000  0.0000000  0.0000000  )
         2           Ir  tau(   2) = (  0.5000000  0.5000000  0.5000000  )
         3           O   tau(   3) = (  0.1916000  0.8084000  0.5000000  )
         4           O   tau(   4) = (  0.3084000  0.3084000  0.0000000  )
         5           O   tau(   5) = (  0.6916000  0.6916000  0.0000000  )
         6           O   tau(   6) = (  0.8084000  0.1916000  0.5000000  )

     number of k points=    18  Methfessel-Paxton smearing, width (Ry)=  0.0050
                       cart. coord. in units 2pi/alat
        k(    1) = (   0.0000000   0.0000000   0.0000000), wk =   0.0227273
        k(    2) = (   0.0000000   0.0000000   0.1295241), wk =   0.0454545
        k(    3) = (   0.0000000   0.0000000   0.2590482), wk =   0.0454545
        k(    4) = (   0.0000000   0.0000000   0.3885722), wk =   0.0454545
        k(    5) = (   0.0000000   0.0000000   0.5180963), wk =   0.0454545
        k(    6) = (   0.0000000   0.0000000   0.6476204), wk =   0.0454545
        k(    7) = (   0.0000000  -0.5000000   0.0000000), wk =   0.0454545
        k(    8) = (   0.0000000  -0.5000000   0.1295241), wk =   0.0909091
        k(    9) = (   0.0000000  -0.5000000   0.2590482), wk =   0.0909091
        k(   10) = (   0.0000000  -0.5000000   0.3885722), wk =   0.0909091
        k(   11) = (   0.0000000  -0.5000000   0.5180963), wk =   0.0909091
        k(   12) = (   0.0000000  -0.5000000   0.6476204), wk =   0.0909091
        k(   13) = (  -0.5000000  -0.5000000   0.0000000), wk =   0.0227273
        k(   14) = (  -0.5000000  -0.5000000   0.1295241), wk =   0.0454545
        k(   15) = (  -0.5000000  -0.5000000   0.2590482), wk =   0.0454545
        k(   16) = (  -0.5000000  -0.5000000   0.3885722), wk =   0.0454545
        k(   17) = (  -0.5000000  -0.5000000   0.5180963), wk =   0.0454545
        k(   18) = (  -0.5000000  -0.5000000   0.6476204), wk =   0.0454545

                       cryst. coord.
        k(    1) = (   0.0000000   0.0000000   0.0000000), wk =   0.0227273
        k(    2) = (   0.0000000   0.0000000   0.0909091), wk =   0.0454545
        k(    3) = (   0.0000000   0.0000000   0.1818182), wk =   0.0454545
        k(    4) = (   0.0000000   0.0000000   0.2727273), wk =   0.0454545
        k(    5) = (   0.0000000   0.0000000   0.3636364), wk =   0.0454545
        k(    6) = (   0.0000000   0.0000000   0.4545455), wk =   0.0454545
        k(    7) = (   0.0000000  -0.5000000   0.0000000), wk =   0.0454545
        k(    8) = (   0.0000000  -0.5000000   0.0909091), wk =   0.0909091
        k(    9) = (   0.0000000  -0.5000000   0.1818182), wk =   0.0909091
        k(   10) = (   0.0000000  -0.5000000   0.2727273), wk =   0.0909091
        k(   11) = (   0.0000000  -0.5000000   0.3636364), wk =   0.0909091
        k(   12) = (   0.0000000  -0.5000000   0.4545455), wk =   0.0909091
        k(   13) = (  -0.5000000  -0.5000000   0.0000000), wk =   0.0227273
        k(   14) = (  -0.5000000  -0.5000000   0.0909091), wk =   0.0454545
        k(   15) = (  -0.5000000  -0.5000000   0.1818182), wk =   0.0454545
        k(   16) = (  -0.5000000  -0.5000000   0.2727273), wk =   0.0454545
        k(   17) = (  -0.5000000  -0.5000000   0.3636364), wk =   0.0454545
        k(   18) = (  -0.5000000  -0.5000000   0.4545455), wk =   0.0454545

     Dense  grid:    42999 G-vectors     FFT dimensions: (  50,  50,  36)

     Dynamical RAM for                 wfc:       0.36 MB

     Dynamical RAM for     wfc (w. buffer):       6.78 MB

     Dynamical RAM for           str. fact:       0.04 MB

     Dynamical RAM for           local pot:       0.00 MB

     Dynamical RAM for          nlocal pot:       0.46 MB

     Dynamical RAM for                qrad:      20.10 MB

     Dynamical RAM for          rho,v,vnew:       0.70 MB

     Dynamical RAM for               rhoin:       0.23 MB

     Dynamical RAM for            rho*nmix:       1.31 MB

     Dynamical RAM for           G-vectors:       0.09 MB

     Dynamical RAM for          h,s,v(r/c):       0.04 MB

     Dynamical RAM for          <psi|beta>:       0.38 MB

     Dynamical RAM for                 psi:       0.71 MB

     Dynamical RAM for                hpsi:       0.71 MB

     Dynamical RAM for      wfcinit/wfcrot:       0.67 MB

     Estimated static dynamical RAM per process >      28.77 MB

     Estimated max dynamical RAM per process >      31.93 MB

     Estimated total dynamical RAM >    1021.73 MB

     Initial potential from superposition of free atoms

     starting charge      57.9997, renormalised to      58.0000
     Starting wfcs are   72 randomized atomic wfcs

     total cpu time spent up to now is        1.1 secs

     Self-consistent Calculation

     iteration #  1     ecut=    80.00 Ry     beta= 0.70
     Davidson diagonalization with overlap

---- Real-time Memory Report at c_bands before calling an iterative solver
            78 MiB given to the printing process from OS
             0 MiB allocation reported by mallinfo(arena+hblkhd)
        228639 MiB available memory on the node where the printing process lives
------------------
     ethr =  1.00E-02,  avg # of iterations =  2.4

     total cpu time spent up to now is        4.2 secs

     total energy              =    -552.41432096 Ry
     estimated scf accuracy    <       1.22156661 Ry

     iteration #  2     ecut=    80.00 Ry     beta= 0.70
     Davidson diagonalization with overlap

---- Real-time Memory Report at c_bands before calling an iterative solver
            84 MiB given to the printing process from OS
             0 MiB allocation reported by mallinfo(arena+hblkhd)
        228495 MiB available memory on the node where the printing process lives
------------------
     ethr =  2.11E-03,  avg # of iterations =  2.1

     total cpu time spent up to now is        7.6 secs

     total energy              =    -552.26343738 Ry
     estimated scf accuracy    <       4.37734861 Ry

     iteration #  3     ecut=    80.00 Ry     beta= 0.70
     Davidson diagonalization with overlap

---- Real-time Memory Report at c_bands before calling an iterative solver
            88 MiB given to the printing process from OS
             0 MiB allocation reported by mallinfo(arena+hblkhd)
        228418 MiB available memory on the node where the printing process lives
------------------
     ethr =  2.11E-03,  avg # of iterations =  2.1

     total cpu time spent up to now is       10.8 secs

     total energy              =    -553.06999036 Ry
     estimated scf accuracy    <       0.03433381 Ry

     iteration #  4     ecut=    80.00 Ry     beta= 0.70
     Davidson diagonalization with overlap

---- Real-time Memory Report at c_bands before calling an iterative solver
            89 MiB given to the printing process from OS
             0 MiB allocation reported by mallinfo(arena+hblkhd)
        228405 MiB available memory on the node where the printing process lives
------------------
     ethr =  5.92E-05,  avg # of iterations =  2.6

     total cpu time spent up to now is       14.0 secs

     total energy              =    -553.07366676 Ry
     estimated scf accuracy    <       0.00507736 Ry

     iteration #  5     ecut=    80.00 Ry     beta= 0.70
     Davidson diagonalization with overlap

---- Real-time Memory Report at c_bands before calling an iterative solver
            89 MiB given to the printing process from OS
             0 MiB allocation reported by mallinfo(arena+hblkhd)
        228402 MiB available memory on the node where the printing process lives
------------------
     ethr =  8.75E-06,  avg # of iterations =  3.6

     total cpu time spent up to now is       17.1 secs

     total energy              =    -553.07457078 Ry
     estimated scf accuracy    <       0.00028641 Ry

     iteration #  6     ecut=    80.00 Ry     beta= 0.70
     Davidson diagonalization with overlap

---- Real-time Memory Report at c_bands before calling an iterative solver
            90 MiB given to the printing process from OS
             0 MiB allocation reported by mallinfo(arena+hblkhd)
        228396 MiB available memory on the node where the printing process lives
------------------
     ethr =  4.94E-07,  avg # of iterations =  2.7

     total cpu time spent up to now is       19.9 secs

     total energy              =    -553.07460243 Ry
     estimated scf accuracy    <       0.00001411 Ry

     iteration #  7     ecut=    80.00 Ry     beta= 0.70
     Davidson diagonalization with overlap

---- Real-time Memory Report at c_bands before calling an iterative solver
            90 MiB given to the printing process from OS
             0 MiB allocation reported by mallinfo(arena+hblkhd)
        228395 MiB available memory on the node where the printing process lives
------------------
     ethr =  2.43E-08,  avg # of iterations =  2.0

     total cpu time spent up to now is       23.2 secs

     total energy              =    -553.07460682 Ry
     estimated scf accuracy    <       0.00000091 Ry

     iteration #  8     ecut=    80.00 Ry     beta= 0.70
     Davidson diagonalization with overlap

---- Real-time Memory Report at c_bands before calling an iterative solver
            92 MiB given to the printing process from OS
             0 MiB allocation reported by mallinfo(arena+hblkhd)
        228367 MiB available memory on the node where the printing process lives
------------------
     ethr =  1.57E-09,  avg # of iterations =  2.0

     total cpu time spent up to now is       26.0 secs

     total energy              =    -553.07460684 Ry
     estimated scf accuracy    <       0.00000017 Ry

     iteration #  9     ecut=    80.00 Ry     beta= 0.70
     Davidson diagonalization with overlap

---- Real-time Memory Report at c_bands before calling an iterative solver
            92 MiB given to the printing process from OS
             0 MiB allocation reported by mallinfo(arena+hblkhd)
        228364 MiB available memory on the node where the printing process lives
------------------
     ethr =  2.88E-10,  avg # of iterations =  2.1

     total cpu time spent up to now is       29.1 secs

     total energy              =    -553.07460687 Ry
     estimated scf accuracy    <          5.0E-09 Ry

     iteration # 10     ecut=    80.00 Ry     beta= 0.70
     Davidson diagonalization with overlap

---- Real-time Memory Report at c_bands before calling an iterative solver
            93 MiB given to the printing process from OS
             0 MiB allocation reported by mallinfo(arena+hblkhd)
        228358 MiB available memory on the node where the printing process lives
------------------
     ethr =  8.62E-12,  avg # of iterations =  2.4

     total cpu time spent up to now is       32.3 secs

     End of self-consistent calculation

          k = 0.0000 0.0000 0.0000 (  5409 PWs)   bands (ev):

   -79.3808 -79.3808 -79.3795 -79.3795 -46.2237 -46.2237 -46.2129 -46.2129
   -32.7625 -32.7625 -32.7600 -32.7600 -32.6199 -32.6199 -32.5973 -32.5973
    -7.0826  -7.0826  -5.9276  -5.9276  -5.0120  -5.0120  -4.8105  -4.8105
     4.2630   4.2630   4.5092   4.5092   6.0251   6.0251   6.1356   6.1356
     6.2606   6.2606   8.7757   8.7757   8.9320   8.9320   9.1892   9.1892
    10.3215  10.3215  10.9802  10.9802  10.9823  10.9823  11.0229  11.0229
    11.2097  11.2097  11.4040  11.4040  11.6371  11.6371  11.6637  11.6637
    12.0588  12.0588  14.6489  14.6489  15.0853  15.0853  17.6800  17.6800
    17.8919  17.8919  18.0365  18.0365  19.4403  19.4403

     occupation numbers 
     1.0000   1.0000   1.0000   1.0000   1.0000   1.0000   1.0000   1.0000
     1.0000   1.0000   1.0000   1.0000   1.0000   1.0000   1.0000   1.0000
     1.0000   1.0000   1.0000   1.0000   1.0000   1.0000   1.0000   1.0000
     1.0000   1.0000   1.0000   1.0000   1.0000   1.0000   1.0000   1.0000
     1.0000   1.0000   1.0000   1.0000   1.0000   1.0000   1.0000   1.0000
     1.0000   1.0000   1.0000   1.0000   1.0000   1.0000   1.0000   1.0000
     1.0000   1.0000   1.0000   1.0000   1.0000   1.0000   1.0000   1.0000
     1.0000   1.0000  -0.0000  -0.0000  -0.0000  -0.0000  -0.0000  -0.0000
    -0.0000  -0.0000  -0.0000  -0.0000  -0.0000  -0.0000

          k = 0.0000 0.0000 0.1295 (  5381 PWs)   bands (ev):

   -79.3806 -79.3806 -79.3793 -79.3793 -46.2243 -46.2243 -46.2141 -46.2141
   -32.7652 -32.7652 -32.7649 -32.7649 -32.6224 -32.6224 -32.5985 -32.5985
    -7.0069  -7.0069  -5.8875  -5.8875  -5.0480  -5.0480  -4.8586  -4.8586
     4.3731   4.3731   4.5892   4.5892   6.0913   6.0913   6.1810   6.1810
     6.3405   6.3405   8.4732   8.4732   8.9957   8.9957   9.2469   9.2469
     9.8225   9.8225  10.3521  10.3521  10.4735  10.4735  11.3959  11.3959
    11.5125  11.5125  11.5921  11.5921  11.5961  11.5961  12.1082  12.1082
    12.2698  12.2698  14.8302  14.8302  15.0069  15.0069  17.4803  17.4803
    17.8067  17.8067  18.1199  18.1199  19.2796  19.2796

     occupation numbers 
     1.0000   1.0000   1.0000   1.0000   1.0000   1.0000   1.0000   1.0000
     1.0000   1.0000   1.0000   1.0000   1.0000   1.0000   1.0000   1.0000
     1.0000   1.0000   1.0000   1.0000   1.0000   1.0000   1.0000   1.0000
     1.0000   1.0000   1.0000   1.0000   1.0000   1.0000   1.0000   1.0000
     1.0000   1.0000   1.0000   1.0000   1.0000   1.0000   1.0000   1.0000
     1.0000   1.0000   1.0000   1.0000   1.0000   1.0000   1.0000   1.0000
     1.0000   1.0000   1.0000   1.0000   1.0000   1.0000   1.0000   1.0000
     1.0000   1.0000  -0.0000  -0.0000  -0.0000  -0.0000  -0.0000  -0.0000
    -0.0000  -0.0000  -0.0000  -0.0000  -0.0000  -0.0000

          k = 0.0000 0.0000 0.2590 (  5377 PWs)   bands (ev):

   -79.3800 -79.3800 -79.3789 -79.3789 -46.2261 -46.2261 -46.2171 -46.2171
   -32.7784 -32.7784 -32.7741 -32.7741 -32.6272 -32.6272 -32.6017 -32.6017
    -6.7938  -6.7938  -5.7864  -5.7864  -5.1415  -5.1415  -4.9857  -4.9857
     4.6890   4.6890   4.8113   4.8113   6.2731   6.2731   6.3137   6.3137
     6.5795   6.5795   7.7874   7.7874   8.8781   8.8781   9.2806   9.2806
     9.3454   9.3454   9.7916   9.7916   9.8036   9.8036  11.0349  11.0349
    11.7223  11.7223  11.7718  11.7718  11.9878  11.9878  12.7432  12.7432
    12.7794  12.7794  14.7806  14.7806  15.2776  15.2776  17.0126  17.0126
    17.3154  17.3154  18.4002  18.4002  19.2141  19.2141

     occupation numbers 
     1.0000   1.0000   1.0000   1.0000   1.0000   1.0000   1.0000   1.0000
     1.0000   1.0000   1.0000   1.0000   1.0000   1.0000   1.0000   1.0000
     1.0000   1.0000   1.0000   1.0000   1.0000   1.0000   1.0000   1.0000
     1.0000   1.0000   1.0000   1.0000   1.0000   1.0000   1.0000   1.0000
     1.0000   1.0000   1.0000   1.0000   1.0000   1.0000   1.0000   1.0000
     1.0000   1.0000   1.0000   1.0000   1.0000   1.0000   1.0000   1.0000
     1.0000   1.0000   1.0000   1.0000   1.0000   1.0000   1.0000   1.0000
     1.0000   1.0000  -0.0000  -0.0000  -0.0000  -0.0000  -0.0000  -0.0000
    -0.0000  -0.0000  -0.0000  -0.0000  -0.0000  -0.0000

          k = 0.0000 0.0000 0.3886 (  5389 PWs)   bands (ev):

   -79.3793 -79.3793 -79.3784 -79.3784 -46.2283 -46.2283 -46.2212 -46.2212
   -32.7963 -32.7963 -32.7892 -32.7892 -32.6295 -32.6295 -32.6058 -32.6058
    -6.4850  -6.4850  -5.6761  -5.6761  -5.2554  -5.2554  -5.1489  -5.1489
     5.1191   5.1191   5.1595   5.1595   6.5086   6.5086   6.5299   6.5299
     6.9729   6.9729   7.0862   7.0862   8.0940   8.0940   8.9808   8.9808
     9.1779   9.1779   9.4938   9.4938   9.7974   9.7974  10.4218  10.4218
    11.7938  11.7938  12.0414  12.0414  12.1788  12.1788  13.2942  13.2942
    13.3213  13.3213  14.4404  14.4404  15.7570  15.7570  16.5526  16.5526
    16.8421  16.8421  17.8194  17.8194  20.1185  20.1185

     occupation numbers 
     1.0000   1.0000   1.0000   1.0000   1.0000   1.0000   1.0000   1.0000
     1.0000   1.0000   1.0000   1.0000   1.0000   1.0000   1.0000   1.0000
     1.0000   1.0000   1.0000   1.0000   1.0000   1.0000   1.0000   1.0000
     1.0000   1.0000   1.0000   1.0000   1.0000   1.0000   1.0000   1.0000
     1.0000   1.0000   1.0000   1.0000   1.0000   1.0000   1.0000   1.0000
     1.0000   1.0000   1.0000   1.0000   1.0000   1.0000   1.0000   1.0000
     1.0000   1.0000   1.0000   1.0000   1.0000   1.0000   1.0000   1.0000
     1.0000   1.0000  -0.0000  -0.0000  -0.0000  -0.0000  -0.0000  -0.0000
    -0.0000  -0.0000  -0.0000  -0.0000  -0.0000  -0.0000

          k = 0.0000 0.0000 0.5181 (  5369 PWs)   bands (ev):

   -79.3785 -79.3785 -79.3780 -79.3780 -46.2299 -46.2299 -46.2254 -46.2254
   -32.8125 -32.8125 -32.8063 -32.8063 -32.6274 -32.6274 -32.6106 -32.6106
    -6.1443  -6.1443  -5.6230  -5.6230  -5.3496  -5.3496  -5.2986  -5.2986
     5.4218   5.4218   5.6538   5.6538   6.4718   6.4718   6.8093   6.8093
     6.8684   6.8684   7.3929   7.3929   7.5372   7.5372   8.5210   8.5210
     8.6578   8.6578   9.6874   9.6874   9.7242   9.7242   9.9403   9.9403
    11.7814  11.7814  12.1525  12.1525  12.4160  12.4160  13.5940  13.5940
    13.7692  13.7692  14.1172  14.1172  16.0453  16.0453  16.2473  16.2473
    16.5611  16.5611  17.1574  17.1574  21.2640  21.2640

     occupation numbers 
     1.0000   1.0000   1.0000   1.0000   1.0000   1.0000   1.0000   1.0000
     1.0000   1.0000   1.0000   1.0000   1.0000   1.0000   1.0000   1.0000
     1.0000   1.0000   1.0000   1.0000   1.0000   1.0000   1.0000   1.0000
     1.0000   1.0000   1.0000   1.0000   1.0000   1.0000   1.0000   1.0000
     1.0000   1.0000   1.0000   1.0000   1.0000   1.0000   1.0000   1.0000
     1.0000   1.0000   1.0000   1.0000   1.0000   1.0000   1.0000   1.0000
     1.0000   1.0000   1.0000   1.0000   1.0000   1.0000   1.0005   1.0005
     0.5833   0.5833  -0.0000  -0.0000  -0.0000  -0.0000  -0.0000  -0.0000
    -0.0000  -0.0000  -0.0000  -0.0000  -0.0000  -0.0000

          k = 0.0000 0.0000 0.6476 (  5378 PWs)   bands (ev):

   -79.3780 -79.3780 -79.3778 -79.3778 -46.2301 -46.2301 -46.2286 -46.2286
   -32.8210 -32.8210 -32.8187 -32.8187 -32.6222 -32.6222 -32.6161 -32.6161
    -5.8492  -5.8492  -5.6704  -5.6704  -5.4051  -5.4051  -5.3928  -5.3928
     5.6447   5.6447   5.7977   5.7977   6.5151   6.5151   6.8937   6.8937
     7.0567   7.0567   7.0572   7.0572   8.1348   8.1348   8.2296   8.2296
     8.3297   8.3297   8.9216   8.9216   9.8949   9.8949   9.9749   9.9749
    11.8207  11.8207  11.9770  11.9770  12.8579  12.8579  13.3205  13.3205
    14.0508  14.0508  14.1150  14.1150  16.0865  16.0865  16.1122  16.1122
    16.5488  16.5488  16.7252  16.7252  22.3935  22.3936

     occupation numbers 
     1.0000   1.0000   1.0000   1.0000   1.0000   1.0000   1.0000   1.0000
     1.0000   1.0000   1.0000   1.0000   1.0000   1.0000   1.0000   1.0000
     1.0000   1.0000   1.0000   1.0000   1.0000   1.0000   1.0000   1.0000
     1.0000   1.0000   1.0000   1.0000   1.0000   1.0000   1.0000   1.0000
     1.0000   1.0000   1.0000   1.0000   1.0000   1.0000   1.0000   1.0000
     1.0000   1.0000   1.0000   1.0000   1.0000   1.0000   1.0000   1.0000
     1.0000   1.0000   1.0000   1.0000   1.0000   1.0000   1.0000   1.0000
    -0.0000  -0.0000  -0.0000  -0.0000  -0.0000  -0.0000  -0.0000  -0.0000
    -0.0000  -0.0000  -0.0000  -0.0000  -0.0000  -0.0000

          k = 0.0000-0.5000 0.0000 (  5380 PWs)   bands (ev):

   -79.3802 -79.3802 -79.3802 -79.3802 -46.2183 -46.2183 -46.2183 -46.2183
   -32.7584 -32.7584 -32.7584 -32.7584 -32.6121 -32.6121 -32.6121 -32.6121
    -6.2894  -6.2894  -6.2894  -6.2894  -5.2716  -5.2716  -5.2716  -5.2716
     5.6199   5.6199   5.6199   5.6199   6.2310   6.2310   6.2310   6.2310
     7.2631   7.2631   7.2631   7.2631   7.8927   7.8927   7.8927   7.8927
     8.7597   8.7597   8.7597   8.7597  10.8195  10.8195  10.8195  10.8195
    12.1287  12.1287  12.1287  12.1287  12.4927  12.4927  12.4927  12.4927
    13.6495  13.6495  13.6495  13.6495  17.2128  17.2128  17.2128  17.2128
    17.5105  17.5105  17.5105  17.5105  20.7674  20.7674

     occupation numbers 
     1.0000   1.0000   1.0000   1.0000   1.0000   1.0000   1.0000   1.0000
     1.0000   1.0000   1.0000   1.0000   1.0000   1.0000   1.0000   1.0000
     1.0000   1.0000   1.0000   1.0000   1.0000   1.0000   1.0000   1.0000
     1.0000   1.0000   1.0000   1.0000   1.0000   1.0000   1.0000   1.0000
     1.0000   1.0000   1.0000   1.0000   1.0000   1.0000   1.0000   1.0000
     1.0000   1.0000   1.0000   1.0000   1.0000   1.0000   1.0000   1.0000
     1.0000   1.0000   1.0000   1.0000   1.0000   1.0000   1.0000   1.0000
     1.0123   1.0123   1.0123   1.0123  -0.0000  -0.0000  -0.0000  -0.0000
    -0.0000  -0.0000  -0.0000  -0.0000  -0.0000  -0.0000

          k = 0.0000-0.5000 0.1295 (  5380 PWs)   bands (ev):

   -79.3800 -79.3800 -79.3800 -79.3800 -46.2195 -46.2195 -46.2190 -46.2190
   -32.7673 -32.7673 -32.7578 -32.7578 -32.6168 -32.6168 -32.6104 -32.6104
    -6.2401  -6.2401  -6.2182  -6.2182  -5.3145  -5.3145  -5.2936  -5.2936
     5.6840   5.6840   5.7613   5.7613   6.1757   6.1757   6.1826   6.1826
     7.4169   7.4169   7.4532   7.4532   7.7692   7.7692   7.8002   7.8002
     8.5152   8.5152   8.6291   8.6291  10.8472  10.8472  10.8748  10.8748
    12.0397  12.0397  12.0448  12.0448  12.6326  12.6326  12.7342  12.7342
    13.5509  13.5509  13.7211  13.7211  16.8247  16.8247  17.0354  17.0354
    17.4866  17.4866  17.5804  17.5804  20.9940  21.0076

     occupation numbers 
     1.0000   1.0000   1.0000   1.0000   1.0000   1.0000   1.0000   1.0000
     1.0000   1.0000   1.0000   1.0000   1.0000   1.0000   1.0000   1.0000
     1.0000   1.0000   1.0000   1.0000   1.0000   1.0000   1.0000   1.0000
     1.0000   1.0000   1.0000   1.0000   1.0000   1.0000   1.0000   1.0000
     1.0000   1.0000   1.0000   1.0000   1.0000   1.0000   1.0000   1.0000
     1.0000   1.0000   1.0000   1.0000   1.0000   1.0000   1.0000   1.0000
     1.0000   1.0000   1.0000   1.0000   1.0000   1.0000   1.0000   1.0000
     1.0000   1.0000   0.9918   0.9918  -0.0000  -0.0000  -0.0000  -0.0000
    -0.0000  -0.0000  -0.0000  -0.0000  -0.0000  -0.0000

          k = 0.0000-0.5000 0.2590 (  5374 PWs)   bands (ev):

   -79.3795 -79.3795 -79.3795 -79.3795 -46.2222 -46.2222 -46.2211 -46.2211
   -32.7837 -32.7837 -32.7657 -32.7657 -32.6226 -32.6226 -32.6106 -32.6106
    -6.0883  -6.0883  -6.0521  -6.0521  -5.4071  -5.4071  -5.3602  -5.3602
     5.8786   5.8786   5.9990   5.9990   6.2109   6.2109   6.2227   6.2227
     7.2038   7.2038   7.2092   7.2092   7.8154   7.8154   7.8337   7.8337
     8.5376   8.5376   8.6088   8.6088  10.6587  10.6587  10.6632  10.6632
    12.0933  12.0933  12.1532  12.1532  12.7207  12.7207  12.9155  12.9155
    13.4902  13.4902  13.8470  13.8470  16.2070  16.2070  16.3776  16.3776
    17.6521  17.6521  17.6723  17.6723  21.5142  21.5195

     occupation numbers 
     1.0000   1.0000   1.0000   1.0000   1.0000   1.0000   1.0000   1.0000
     1.0000   1.0000   1.0000   1.0000   1.0000   1.0000   1.0000   1.0000
     1.0000   1.0000   1.0000   1.0000   1.0000   1.0000   1.0000   1.0000
     1.0000   1.0000   1.0000   1.0000   1.0000   1.0000   1.0000   1.0000
     1.0000   1.0000   1.0000   1.0000   1.0000   1.0000   1.0000   1.0000
     1.0000   1.0000   1.0000   1.0000   1.0000   1.0000   1.0000   1.0000
     1.0000   1.0000   1.0000   1.0000   1.0000   1.0000   1.0000   1.0000
     1.0000   1.0000  -0.0292  -0.0292  -0.0000  -0.0000  -0.0000  -0.0000
    -0.0000  -0.0000  -0.0000  -0.0000  -0.0000  -0.0000

          k = 0.0000-0.5000 0.3886 (  5384 PWs)   bands (ev):

   -79.3788 -79.3788 -79.3788 -79.3788 -46.2255 -46.2255 -46.2240 -46.2240
   -32.8042 -32.8042 -32.7801 -32.7801 -32.6266 -32.6266 -32.6108 -32.6108
    -5.9006  -5.9006  -5.8753  -5.8753  -5.4969  -5.4969  -5.4040  -5.4040
     5.9856   5.9856   6.0293   6.0293   6.4591   6.4591   6.4842   6.4842
     6.5851   6.5851   6.7505   6.7505   8.1511   8.1511   8.1580   8.1580
     8.8153   8.8153   8.8402   8.8402  10.3502  10.3502  10.3804  10.3804
    11.9593  11.9593  12.0249  12.0249  12.5932  12.5932  12.8675  12.8675
    13.6509  13.6509  14.0840  14.0840  15.6226  15.6226  15.7229  15.7229
    17.8283  17.8283  17.9295  17.9295  22.1210  22.1253

     occupation numbers 
     1.0000   1.0000   1.0000   1.0000   1.0000   1.0000   1.0000   1.0000
     1.0000   1.0000   1.0000   1.0000   1.0000   1.0000   1.0000   1.0000
     1.0000   1.0000   1.0000   1.0000   1.0000   1.0000   1.0000   1.0000
     1.0000   1.0000   1.0000   1.0000   1.0000   1.0000   1.0000   1.0000
     1.0000   1.0000   1.0000   1.0000   1.0000   1.0000   1.0000   1.0000
     1.0000   1.0000   1.0000   1.0000   1.0000   1.0000   1.0000   1.0000
     1.0000   1.0000   1.0000   1.0000   1.0000   1.0000   1.0000   1.0000
     1.0130   1.0130  -0.0000  -0.0000  -0.0000  -0.0000  -0.0000  -0.0000
    -0.0000  -0.0000  -0.0000  -0.0000  -0.0000  -0.0000

          k = 0.0000-0.5000 0.5181 (  5370 PWs)   bands (ev):

   -79.3782 -79.3782 -79.3782 -79.3782 -46.2286 -46.2286 -46.2268 -46.2268
   -32.8234 -32.8234 -32.7956 -32.7956 -32.6281 -32.6281 -32.6103 -32.6103
    -5.8147  -5.8147  -5.8133  -5.8133  -5.4790  -5.4790  -5.3324  -5.3324
     5.7969   5.7969   5.8290   5.8290   6.1505   6.1505   6.1708   6.1708
     7.0805   7.0805   7.3772   7.3772   8.3863   8.3863   8.4069   8.4069
     8.9387   8.9387   9.0529   9.0529  10.2618  10.2618  10.3095  10.3095
    11.5873  11.5873  11.6195  11.6195  12.2567  12.2567  12.5614  12.5614
    13.9502  13.9502  14.3454  14.3454  15.2348  15.2348  15.2572  15.2572
    18.0508  18.0508  18.1977  18.1977  22.6956  22.6976

     occupation numbers 
     1.0000   1.0000   1.0000   1.0000   1.0000   1.0000   1.0000   1.0000
     1.0000   1.0000   1.0000   1.0000   1.0000   1.0000   1.0000   1.0000
     1.0000   1.0000   1.0000   1.0000   1.0000   1.0000   1.0000   1.0000
     1.0000   1.0000   1.0000   1.0000   1.0000   1.0000   1.0000   1.0000
     1.0000   1.0000   1.0000   1.0000   1.0000   1.0000   1.0000   1.0000
     1.0000   1.0000   1.0000   1.0000   1.0000   1.0000   1.0000   1.0000
     1.0000   1.0000   1.0000   1.0000   1.0000   1.0000   1.0000   1.0000
    -0.0009  -0.0009  -0.0000  -0.0000  -0.0000  -0.0000  -0.0000  -0.0000
    -0.0000  -0.0000  -0.0000  -0.0000  -0.0000  -0.0000

          k = 0.0000-0.5000 0.6476 (  5370 PWs)   bands (ev):

   -79.3779 -79.3779 -79.3779 -79.3779 -46.2304 -46.2304 -46.2284 -46.2284
   -32.8349 -32.8349 -32.8056 -32.8056 -32.6284 -32.6284 -32.6098 -32.6098
    -5.8303  -5.8303  -5.8292  -5.8292  -5.3937  -5.3937  -5.2325  -5.2325
     5.4802   5.4802   5.5223   5.5223   6.2041   6.2041   6.2042   6.2042
     7.4681   7.4681   7.9491   7.9491   8.4930   8.4930   8.5781   8.5781
     8.8576   8.8576   8.9725   8.9725  10.5161  10.5161  10.5209  10.5209
    11.1583  11.1583  11.1671  11.1671  11.9421  11.9421  12.2706  12.2706
    14.1344  14.1344  14.4863  14.4863  15.0403  15.0403  15.0776  15.0776
    18.2047  18.2047  18.3718  18.3718  23.0678  23.1345

     occupation numbers 
     1.0000   1.0000   1.0000   1.0000   1.0000   1.0000   1.0000   1.0000
     1.0000   1.0000   1.0000   1.0000   1.0000   1.0000   1.0000   1.0000
     1.0000   1.0000   1.0000   1.0000   1.0000   1.0000   1.0000   1.0000
     1.0000   1.0000   1.0000   1.0000   1.0000   1.0000   1.0000   1.0000
     1.0000   1.0000   1.0000   1.0000   1.0000   1.0000   1.0000   1.0000
     1.0000   1.0000   1.0000   1.0000   1.0000   1.0000   1.0000   1.0000
     1.0000   1.0000   1.0000   1.0000   1.0000   1.0000   1.0000   1.0000
    -0.0000  -0.0000  -0.0000  -0.0000  -0.0000  -0.0000  -0.0000  -0.0000
    -0.0000  -0.0000  -0.0000  -0.0000  -0.0000  -0.0000

          k =-0.5000-0.5000 0.0000 (  5412 PWs)   bands (ev):

   -79.3802 -79.3802 -79.3802 -79.3802 -46.2184 -46.2184 -46.2184 -46.2184
   -32.7610 -32.7610 -32.7610 -32.7610 -32.6099 -32.6099 -32.6099 -32.6099
    -6.4208  -6.4208  -6.4208  -6.4208  -5.0444  -5.0444  -5.0444  -5.0444
     4.3933   4.3933   4.3933   4.3933   6.0030   6.0030   6.0030   6.0030
     8.7420   8.7420   8.7420   8.7420   8.7717   8.7717   8.7717   8.7717
     9.5838   9.5838   9.5838   9.5838  10.3541  10.3541  10.3541  10.3541
    11.1188  11.1188  11.1188  11.1188  11.7425  11.7425  11.7425  11.7425
    14.0620  14.0620  14.0620  14.0620  16.2336  16.2336  16.2336  16.2336
    17.9181  17.9181  17.9181  17.9181  22.7989  22.7996

     occupation numbers 
     1.0000   1.0000   1.0000   1.0000   1.0000   1.0000   1.0000   1.0000
     1.0000   1.0000   1.0000   1.0000   1.0000   1.0000   1.0000   1.0000
     1.0000   1.0000   1.0000   1.0000   1.0000   1.0000   1.0000   1.0000
     1.0000   1.0000   1.0000   1.0000   1.0000   1.0000   1.0000   1.0000
     1.0000   1.0000   1.0000   1.0000   1.0000   1.0000   1.0000   1.0000
     1.0000   1.0000   1.0000   1.0000   1.0000   1.0000   1.0000   1.0000
     1.0000   1.0000   1.0000   1.0000   1.0000   1.0000   1.0000   1.0000
    -0.0000  -0.0000  -0.0000  -0.0000  -0.0000  -0.0000  -0.0000  -0.0000
    -0.0000  -0.0000  -0.0000  -0.0000  -0.0000  -0.0000

          k =-0.5000-0.5000 0.1295 (  5404 PWs)   bands (ev):

   -79.3800 -79.3800 -79.3800 -79.3800 -46.2193 -46.2193 -46.2193 -46.2193
   -32.7649 -32.7649 -32.7649 -32.7649 -32.6116 -32.6116 -32.6116 -32.6116
    -6.3602  -6.3602  -6.3602  -6.3602  -5.0835  -5.0835  -5.0835  -5.0835
     4.4821   4.4821   4.4821   4.4821   6.0028   6.0028   6.0028   6.0028
     8.7695   8.7695   8.7695   8.7695   8.9032   8.9032   8.9032   8.9032
     9.2327   9.2327   9.2327   9.2327  10.0644  10.0644  10.0644  10.0644
    11.3911  11.3911  11.3911  11.3911  11.9660  11.9660  11.9660  11.9660
    13.9721  13.9721  13.9721  13.9721  16.3492  16.3492  16.3492  16.3492
    17.7172  17.7172  17.7172  17.7172  22.5439  22.5439

     occupation numbers 
     1.0000   1.0000   1.0000   1.0000   1.0000   1.0000   1.0000   1.0000
     1.0000   1.0000   1.0000   1.0000   1.0000   1.0000   1.0000   1.0000
     1.0000   1.0000   1.0000   1.0000   1.0000   1.0000   1.0000   1.0000
     1.0000   1.0000   1.0000   1.0000   1.0000   1.0000   1.0000   1.0000
     1.0000   1.0000   1.0000   1.0000   1.0000   1.0000   1.0000   1.0000
     1.0000   1.0000   1.0000   1.0000   1.0000   1.0000   1.0000   1.0000
     1.0000   1.0000   1.0000   1.0000   1.0000   1.0000   1.0000   1.0000
    -0.0002  -0.0002  -0.0002  -0.0002  -0.0000  -0.0000  -0.0000  -0.0000
    -0.0000  -0.0000  -0.0000  -0.0000  -0.0000  -0.0000

          k =-0.5000-0.5000 0.2590 (  5384 PWs)   bands (ev):

   -79.3795 -79.3795 -79.3795 -79.3795 -46.2217 -46.2217 -46.2217 -46.2217
   -32.7764 -32.7764 -32.7764 -32.7764 -32.6153 -32.6153 -32.6153 -32.6153
    -6.1952  -6.1952  -6.1952  -6.1952  -5.1865  -5.1865  -5.1865  -5.1865
     4.7322   4.7322   4.7322   4.7322   6.0202   6.0202   6.0202   6.0202
     8.4061   8.4061   8.4061   8.4061   8.9461   8.9461   8.9461   8.9461
     9.1466   9.1466   9.1466   9.1466   9.7342   9.7342   9.7342   9.7342
    11.7429  11.7429  11.7429  11.7429  12.3860  12.3860  12.3860  12.3860
    13.7260  13.7260  13.7260  13.7260  16.5796  16.5796  16.5796  16.5796
    17.2848  17.2848  17.2848  17.2848  22.8034  22.8034

     occupation numbers 
     1.0000   1.0000   1.0000   1.0000   1.0000   1.0000   1.0000   1.0000
     1.0000   1.0000   1.0000   1.0000   1.0000   1.0000   1.0000   1.0000
     1.0000   1.0000   1.0000   1.0000   1.0000   1.0000   1.0000   1.0000
     1.0000   1.0000   1.0000   1.0000   1.0000   1.0000   1.0000   1.0000
     1.0000   1.0000   1.0000   1.0000   1.0000   1.0000   1.0000   1.0000
     1.0000   1.0000   1.0000   1.0000   1.0000   1.0000   1.0000   1.0000
     1.0000   1.0000   1.0000   1.0000   1.0000   1.0000   1.0000   1.0000
     0.9713   0.9713   0.9713   0.9713  -0.0000  -0.0000  -0.0000  -0.0000
    -0.0000  -0.0000  -0.0000  -0.0000  -0.0000  -0.0000

          k =-0.5000-0.5000 0.3886 (  5360 PWs)   bands (ev):

   -79.3788 -79.3788 -79.3788 -79.3788 -46.2248 -46.2248 -46.2248 -46.2248
   -32.7931 -32.7931 -32.7931 -32.7931 -32.6182 -32.6182 -32.6182 -32.6182
    -5.9732  -5.9732  -5.9732  -5.9732  -5.3169  -5.3169  -5.3169  -5.3169
     5.0902   5.0902   5.0902   5.0902   6.0771   6.0771   6.0771   6.0771
     7.6461   7.6461   7.6461   7.6461   8.8186   8.8186   8.8186   8.8186
     9.2343   9.2343   9.2343   9.2343   9.9848   9.9848   9.9848   9.9848
    11.9332  11.9332  11.9332  11.9332  12.7630  12.7630  12.7630  12.7630
    13.4103  13.4103  13.4103  13.4103  16.5463  16.5463  16.5463  16.5463
    17.0500  17.0500  17.0500  17.0500  22.9754  22.9754

     occupation numbers 
     1.0000   1.0000   1.0000   1.0000   1.0000   1.0000   1.0000   1.0000
     1.0000   1.0000   1.0000   1.0000   1.0000   1.0000   1.0000   1.0000
     1.0000   1.0000   1.0000   1.0000   1.0000   1.0000   1.0000   1.0000
     1.0000   1.0000   1.0000   1.0000   1.0000   1.0000   1.0000   1.0000
     1.0000   1.0000   1.0000   1.0000   1.0000   1.0000   1.0000   1.0000
     1.0000   1.0000   1.0000   1.0000   1.0000   1.0000   1.0000   1.0000
     1.0000   1.0000   1.0000   1.0000   1.0000   1.0000   1.0000   1.0000
     1.0000   1.0000   1.0000   1.0000  -0.0000  -0.0000  -0.0000  -0.0000
    -0.0000  -0.0000  -0.0000  -0.0000  -0.0000  -0.0000

          k =-0.5000-0.5000 0.5181 (  5360 PWs)   bands (ev):

   -79.3782 -79.3782 -79.3782 -79.3782 -46.2277 -46.2277 -46.2277 -46.2277
   -32.8097 -32.8097 -32.8097 -32.8097 -32.6195 -32.6195 -32.6195 -32.6195
    -5.7654  -5.7654  -5.7654  -5.7654  -5.4299  -5.4299  -5.4299  -5.4299
     5.4580   5.4580   5.4580   5.4580   6.1617   6.1617   6.1617   6.1617
     7.0371   7.0371   7.0371   7.0371   8.4878   8.4878   8.4878   8.4878
     9.4661   9.4661   9.4661   9.4661  10.3829  10.3829  10.3829  10.3829
    11.9693  11.9693  11.9693  11.9693  12.8264  12.8264  12.8264  12.8264
    13.3085  13.3085  13.3085  13.3085  16.2574  16.2574  16.2574  16.2574
    17.0536  17.0536  17.0536  17.0536  23.0875  23.0875

     occupation numbers 
     1.0000   1.0000   1.0000   1.0000   1.0000   1.0000   1.0000   1.0000
     1.0000   1.0000   1.0000   1.0000   1.0000   1.0000   1.0000   1.0000
     1.0000   1.0000   1.0000   1.0000   1.0000   1.0000   1.0000   1.0000
     1.0000   1.0000   1.0000   1.0000   1.0000   1.0000   1.0000   1.0000
     1.0000   1.0000   1.0000   1.0000   1.0000   1.0000   1.0000   1.0000
     1.0000   1.0000   1.0000   1.0000   1.0000   1.0000   1.0000   1.0000
     1.0000   1.0000   1.0000   1.0000   1.0000   1.0000   1.0000   1.0000
     1.0000   1.0000   1.0000   1.0000  -0.0000  -0.0000  -0.0000  -0.0000
    -0.0000  -0.0000  -0.0000  -0.0000  -0.0000  -0.0000

          k =-0.5000-0.5000 0.6476 (  5384 PWs)   bands (ev):

   -79.3779 -79.3779 -79.3779 -79.3779 -46.2294 -46.2294 -46.2294 -46.2294
   -32.8201 -32.8201 -32.8201 -32.8201 -32.6197 -32.6197 -32.6197 -32.6197
    -5.6490  -5.6490  -5.6490  -5.6490  -5.4847  -5.4847  -5.4847  -5.4847
     5.7012   5.7012   5.7012   5.7012   6.2241   6.2241   6.2241   6.2241
     6.7041   6.7041   6.7041   6.7041   8.2857   8.2857   8.2857   8.2857
     9.6380   9.6380   9.6380   9.6380  10.6256  10.6256  10.6256  10.6256
    11.9382  11.9382  11.9382  11.9382  12.6511  12.6511  12.6511  12.6511
    13.4223  13.4223  13.4223  13.4223  16.0909  16.0909  16.0909  16.0909
    17.0309  17.0309  17.0309  17.0309  23.0723  23.0723

     occupation numbers 
     1.0000   1.0000   1.0000   1.0000   1.0000   1.0000   1.0000   1.0000
     1.0000   1.0000   1.0000   1.0000   1.0000   1.0000   1.0000   1.0000
     1.0000   1.0000   1.0000   1.0000   1.0000   1.0000   1.0000   1.0000
     1.0000   1.0000   1.0000   1.0000   1.0000   1.0000   1.0000   1.0000
     1.0000   1.0000   1.0000   1.0000   1.0000   1.0000   1.0000   1.0000
     1.0000   1.0000   1.0000   1.0000   1.0000   1.0000   1.0000   1.0000
     1.0000   1.0000   1.0000   1.0000   1.0000   1.0000   1.0000   1.0000
     1.0000   1.0000   1.0000   1.0000  -0.0000  -0.0000  -0.0000  -0.0000
    -0.0000  -0.0000  -0.0000  -0.0000  -0.0000  -0.0000

     the Fermi energy is    13.7760 ev

!    total energy              =    -553.07460687 Ry
     estimated scf accuracy    <          6.9E-11 Ry
     smearing contrib. (-TS)   =       0.00006722 Ry
     internal energy E=F+TS    =    -553.07467409 Ry

     The total energy is F=E-TS. E is the sum of the following terms:
     one-electron contribution =    -190.89358348 Ry
     hartree contribution      =     122.71762446 Ry
     xc contribution           =     -69.91270455 Ry
     ewald contribution        =    -414.98601052 Ry

     convergence has been achieved in  10 iterations

     Forces acting on atoms (cartesian axes, Ry/au):

     atom    1 type  2   force =     0.00000000    0.00000000   -0.00000000
     atom    2 type  2   force =     0.00000000    0.00000000    0.00000000
     atom    3 type  1   force =    -0.00140216    0.00140216   -0.00000000
     atom    4 type  1   force =     0.00140216    0.00140216    0.00000000
     atom    5 type  1   force =    -0.00140216   -0.00140216    0.00000000
     atom    6 type  1   force =     0.00140216   -0.00140216   -0.00000000
     The non-local contrib.  to forces
     atom    1 type  2   force =     0.00000000    0.00000000    0.00000000
     atom    2 type  2   force =     0.00000000    0.00000000    0.00000000
     atom    3 type  1   force =    -0.05329675    0.05329675    0.00000000
     atom    4 type  1   force =     0.05329675    0.05329675   -0.00000000
     atom    5 type  1   force =    -0.05329675   -0.05329675   -0.00000000
     atom    6 type  1   force =     0.05329675   -0.05329675    0.00000000
     The ionic contribution  to forces
     atom    1 type  2   force =    -0.00000000   -0.00000000    0.00000000
     atom    2 type  2   force =     0.00000000    0.00000000   -0.00000000
     atom    3 type  1   force =     1.42937233   -1.42937233    0.00000000
     atom    4 type  1   force =    -1.42937233   -1.42937233   -0.00000000
     atom    5 type  1   force =     1.42937233    1.42937233   -0.00000000
     atom    6 type  1   force =    -1.42937233    1.42937233    0.00000000
     The local contribution  to forces
     atom    1 type  2   force =     0.00000000    0.00000000   -0.00000000
     atom    2 type  2   force =     0.00000000    0.00000000    0.00000000
     atom    3 type  1   force =    -1.37747792    1.37747792    0.00000000
     atom    4 type  1   force =     1.37747792    1.37747792   -0.00000000
     atom    5 type  1   force =    -1.37747792   -1.37747792    0.00000000
     atom    6 type  1   force =     1.37747792   -1.37747792    0.00000000
     The core correction contribution to forces
     atom    1 type  2   force =     0.00000000    0.00000000    0.00000000
     atom    2 type  2   force =     0.00000000    0.00000000    0.00000000
     atom    3 type  1   force =     0.00000000    0.00000000    0.00000000
     atom    4 type  1   force =     0.00000000    0.00000000    0.00000000
     atom    5 type  1   force =     0.00000000    0.00000000    0.00000000
     atom    6 type  1   force =     0.00000000    0.00000000    0.00000000
     The Hubbard contrib.    to forces
     atom    1 type  2   force =     0.00000000    0.00000000    0.00000000
     atom    2 type  2   force =     0.00000000    0.00000000    0.00000000
     atom    3 type  1   force =     0.00000000    0.00000000    0.00000000
     atom    4 type  1   force =     0.00000000    0.00000000    0.00000000
     atom    5 type  1   force =     0.00000000    0.00000000    0.00000000
     atom    6 type  1   force =     0.00000000    0.00000000    0.00000000
     The SCF correction term to forces
     atom    1 type  2   force =     0.00000000   -0.00000000   -0.00000000
     atom    2 type  2   force =    -0.00000000    0.00000000    0.00000000
     atom    3 type  1   force =     0.00000017   -0.00000017   -0.00000000
     atom    4 type  1   force =    -0.00000017   -0.00000017    0.00000000
     atom    5 type  1   force =     0.00000017    0.00000017    0.00000000
     atom    6 type  1   force =    -0.00000017    0.00000017   -0.00000000

     Total force =     0.003966     Total SCF correction =     0.000000


     Computing stress (Cartesian axis) and pressure

          total   stress  (Ry/bohr**3)                   (kbar)     P=      -20.81
  -0.00011200   0.00000000   0.00000000          -16.48        0.00        0.00
   0.00000000  -0.00011200   0.00000000            0.00      -16.48        0.00
   0.00000000   0.00000000  -0.00020035            0.00        0.00      -29.47

     kinetic stress (kbar)  48492.68      0.00      0.00
                                0.00  48492.68      0.00
                                0.00      0.00  47457.36

     local   stress (kbar) -12735.93      0.00      0.00
                                0.00 -12735.93      0.00
                                0.00      0.00 -44298.53

     nonloc. stress (kbar)  14529.95      0.00      0.00
                                0.00  14529.95      0.00
                                0.00      0.00  14728.71

     hartree stress (kbar)   9620.86     -0.00     -0.00
                               -0.00   9620.86     -0.00
                               -0.00     -0.00  21354.01

     exc-cor stress (kbar)  -7287.83     -0.00     -0.00
                               -0.00  -7287.83      0.00
                               -0.00      0.00  -7263.58

     corecor stress (kbar)      0.00      0.00      0.00
                                0.00      0.00      0.00
                                0.00      0.00      0.00

     ewald   stress (kbar) -52636.21     -0.00     -0.00
                               -0.00 -52636.21     -0.00
                               -0.00     -0.00 -32007.45

     hubbard stress (kbar)      0.00      0.00      0.00
                                0.00      0.00      0.00
                                0.00      0.00      0.00

     DFT-D   stress (kbar)      0.00      0.00      0.00
                                0.00      0.00      0.00
                                0.00      0.00      0.00

     XDM     stress (kbar)      0.00      0.00      0.00
                                0.00      0.00      0.00
                                0.00      0.00      0.00

     dft-nl  stress (kbar)      0.00      0.00      0.00
                                0.00      0.00      0.00
                                0.00      0.00      0.00

     TS-vdW  stress (kbar)      0.00      0.00      0.00
                                0.00      0.00      0.00
                                0.00      0.00      0.00


                                0.00      0.00      0.00
                                0.00      0.00      0.00


                                0.00      0.00      0.00


     Writing all to output data dir tmp/espresso.save/
 
     init_run     :      1.87s CPU      0.99s WALL (       1 calls)
     electrons    :     61.01s CPU     31.27s WALL (       1 calls)
     forces       :      3.13s CPU      1.60s WALL (       1 calls)
     stress       :      4.54s CPU      2.30s WALL (       1 calls)

     Called by init_run:
     wfcinit      :      1.80s CPU      0.93s WALL (       1 calls)
     wfcinit:atom :      0.01s CPU      0.00s WALL (      18 calls)
     wfcinit:wfcr :      1.75s CPU      0.90s WALL (      18 calls)
     potinit      :      0.03s CPU      0.02s WALL (       1 calls)
     hinit0       :      0.03s CPU      0.03s WALL (       1 calls)

     Called by electrons:
     c_bands      :     55.73s CPU     28.54s WALL (      10 calls)
     sum_band     :      5.13s CPU      2.64s WALL (      10 calls)
     v_of_rho     :      0.05s CPU      0.03s WALL (      11 calls)
     v_h          :      0.00s CPU      0.00s WALL (      11 calls)
     v_xc         :      0.04s CPU      0.02s WALL (      11 calls)
     mix_rho      :      0.05s CPU      0.02s WALL (      10 calls)

     Called by c_bands:
     init_us_2    :      0.17s CPU      0.09s WALL (     414 calls)
     init_us_2:cp :      0.17s CPU      0.09s WALL (     414 calls)
     cegterg      :     51.45s CPU     26.36s WALL (     180 calls)

     Called by sum_band:
     sum_band:wei :      0.05s CPU      0.03s WALL (      10 calls)
     sum_band:loo :      5.06s CPU      2.60s WALL (      10 calls)
     sum_band:buf :      0.03s CPU      0.02s WALL (     180 calls)
     sum_band:ini :      0.05s CPU      0.03s WALL (     180 calls)

     Called by *egterg:
     cdiaghg      :      7.58s CPU      3.85s WALL (     612 calls)
     cegterg:over :      3.19s CPU      1.62s WALL (     432 calls)
     cegterg:upda :      2.47s CPU      1.26s WALL (     432 calls)
     cegterg:last :      4.40s CPU      2.24s WALL (     360 calls)
     cdiaghg:chol :      0.36s CPU      0.18s WALL (     612 calls)
     cdiaghg:inve :      0.06s CPU      0.03s WALL (     612 calls)
     cdiaghg:para :      0.78s CPU      0.40s WALL (    1224 calls)
     h_psi        :     34.18s CPU     17.59s WALL (     630 calls)
     g_psi        :      0.05s CPU      0.02s WALL (     432 calls)

     Called by h_psi:
     h_psi:calbec :      4.13s CPU      2.16s WALL (     630 calls)
     vloc_psi     :     24.08s CPU     12.38s WALL (     630 calls)
     add_vuspsi   :      5.89s CPU      3.01s WALL (     630 calls)

     General routines
     calbec       :      5.35s CPU      2.79s WALL (     720 calls)
     fft          :      0.06s CPU      0.03s WALL (     150 calls)
     ffts         :      0.01s CPU      0.01s WALL (      40 calls)
     fftw         :     27.30s CPU     14.04s WALL (  153484 calls)
 
     Parallel routines
 
     PWSCF        :   1m12.73s CPU     37.93s WALL

 
   This run was terminated on:  11:56:29  10Apr2022            

=------------------------------------------------------------------------------=
   JOB DONE.
=------------------------------------------------------------------------------=
