
     Program PWSCF v.7.0 starts on 10Apr2022 at 10: 0: 5 

     This program is part of the open-source Quantum ESPRESSO suite
     for quantum simulation of materials; please cite
         "P. Giannozzi et al., J. Phys.:Condens. Matter 21 395502 (2009);
         "P. Giannozzi et al., J. Phys.:Condens. Matter 29 465901 (2017);
         "P. Giannozzi et al., J. Chem. Phys. 152 154105 (2020);
          URL http://www.quantum-espresso.org", 
     in publications or presentations arising from this work. More details at
     http://www.quantum-espresso.org/quote

     Parallel version (MPI & OpenMP), running on      64 processor cores
     Number of MPI processes:                32
     Threads/MPI process:                     2

     MPI processes distributed on     1 nodes
     R & G space division:  proc/nbgrp/npool/nimage =      32
     231148 MiB available memory on the printing compute node when the environment starts
 
     Reading input from kpoints_774.pwi
Warning: card &CELL ignored
Warning: card / ignored

     Current dimensions of program PWSCF are:
     Max number of different atomic species (ntypx) = 10
     Max number of k-points (npk) =  40000
     Max angular momentum in pseudopotentials (lmaxx) =  4

     Subspace diagonalization in iterative solution of the eigenvalue problem:
     one sub-group per band group will be used
     scalapack distributed-memory algorithm (size of sub-group:  5*  5 procs)

 
     Parallelization info
     --------------------
     sticks:   dense  smooth     PW     G-vecs:    dense   smooth      PW
     Min          58      58     17                 1342     1342     209
     Max          59      59     18                 1345     1345     212
     Sum        1885    1885    553                42999    42999    6723
 
     Using Slab Decomposition
 

     Title: 
     IrO2 Unit Cell                                                             


     bravais-lattice index     =            6
     lattice parameter (alat)  =       8.5888  a.u.
     unit-cell volume          =     444.6868 (a.u.)^3
     number of atoms/cell      =            6
     number of atomic types    =            2
     number of electrons       =        58.00
     number of Kohn-Sham states=           70
     kinetic-energy cutoff     =      80.0000  Ry
     charge density cutoff     =     320.0000  Ry
     scf convergence threshold =      1.0E-09
     mixing beta               =       0.7000
     number of iterations used =            8  plain     mixing
     Exchange-correlation= PBE
                           (   1   4   3   4   0   0   0)
     Non magnetic calculation with spin-orbit


     celldm(1)=   8.588800  celldm(2)=   0.000000  celldm(3)=   0.701870
     celldm(4)=   0.000000  celldm(5)=   0.000000  celldm(6)=   0.000000

     crystal axes: (cart. coord. in units of alat)
               a(1) = (   1.000000   0.000000   0.000000 )  
               a(2) = (   0.000000   1.000000   0.000000 )  
               a(3) = (   0.000000   0.000000   0.701870 )  

     reciprocal axes: (cart. coord. in units 2 pi/alat)
               b(1) = (  1.000000  0.000000  0.000000 )  
               b(2) = (  0.000000  1.000000  0.000000 )  
               b(3) = (  0.000000  0.000000  1.424765 )  


     PseudoPot. # 1 for O  read from file:
     ../../XX_PSEUDO/O_ONCV_PBE_fr.upf
     MD5 check sum: 59c925217d3b58c6d762355590b68b09
     Pseudo is Norm-conserving, Zval =  6.0
     Generated using ONCVPSP code by D. R. Hamann
     Using radial grid of  936 points,  6 beta functions with: 
                l(1) =   0
                l(2) =   0
                l(3) =   1
                l(4) =   1
                l(5) =   1
                l(6) =   1

     PseudoPot. # 2 for Ir read from file:
     ../../XX_PSEUDO/Ir_ONCV_PBE_fr.upf
     MD5 check sum: 924e909c4146afa09f62ee3401806954
     Pseudo is Norm-conserving, Zval = 17.0
     Generated using ONCVPSP code by D. R. Hamann
     Using radial grid of 1310 points, 14 beta functions with: 
                l(1) =   0
                l(2) =   0
                l(3) =   1
                l(4) =   1
                l(5) =   1
                l(6) =   1
                l(7) =   2
                l(8) =   2
                l(9) =   2
               l(10) =   2
               l(11) =   3
               l(12) =   3
               l(13) =   3
               l(14) =   3

     atomic species   valence    mass     pseudopotential
        O              6.00    15.99900     O ( 1.00)
        Ir            17.00   192.21700     Ir( 1.00)

     16 Sym. Ops., with inversion, found ( 8 have fractional translation)


                                    s                        frac. trans.

      isym =  1     identity                                     

 cryst.   s( 1) = (     1          0          0      )
                  (     0          1          0      )
                  (     0          0          1      )

 cart.    s( 1) = (  1.0000000  0.0000000  0.0000000 )
                  (  0.0000000  1.0000000  0.0000000 )
                  (  0.0000000  0.0000000  1.0000000 )


      isym =  2     180 deg rotation - cart. axis [0,0,1]        

 cryst.   s( 2) = (    -1          0          0      )
                  (     0         -1          0      )
                  (     0          0          1      )

 cart.    s( 2) = ( -1.0000000  0.0000000  0.0000000 )
                  (  0.0000000 -1.0000000  0.0000000 )
                  (  0.0000000  0.0000000  1.0000000 )


      isym =  3     180 deg rotation - cart. axis [0,1,0]        

 cryst.   s( 3) = (    -1          0          0      )    f =(  0.5000000 )
                  (     0          1          0      )       ( -0.5000000 )
                  (     0          0         -1      )       (  0.5000000 )

 cart.    s( 3) = ( -1.0000000  0.0000000  0.0000000 )    f =(  0.5000000 )
                  (  0.0000000  1.0000000  0.0000000 )       ( -0.5000000 )
                  (  0.0000000  0.0000000 -1.0000000 )       (  0.3509351 )


      isym =  4     180 deg rotation - cart. axis [1,0,0]        

 cryst.   s( 4) = (     1          0          0      )    f =( -0.5000000 )
                  (     0         -1          0      )       (  0.5000000 )
                  (     0          0         -1      )       (  0.5000000 )

 cart.    s( 4) = (  1.0000000  0.0000000  0.0000000 )    f =( -0.5000000 )
                  (  0.0000000 -1.0000000  0.0000000 )       (  0.5000000 )
                  (  0.0000000  0.0000000 -1.0000000 )       (  0.3509351 )


      isym =  5     180 deg rotation - cart. axis [1,1,0]        

 cryst.   s( 5) = (     0          1          0      )
                  (     1          0          0      )
                  (     0          0         -1      )

 cart.    s( 5) = (  0.0000000  1.0000000  0.0000000 )
                  (  1.0000000  0.0000000  0.0000000 )
                  (  0.0000000  0.0000000 -1.0000000 )


      isym =  6     180 deg rotation - cart. axis [1,-1,0]       

 cryst.   s( 6) = (     0         -1          0      )
                  (    -1          0          0      )
                  (     0          0         -1      )

 cart.    s( 6) = (  0.0000000 -1.0000000  0.0000000 )
                  ( -1.0000000  0.0000000  0.0000000 )
                  (  0.0000000  0.0000000 -1.0000000 )


      isym =  7      90 deg rotation - cart. axis [0,0,-1]       

 cryst.   s( 7) = (     0         -1          0      )    f =( -0.5000000 )
                  (     1          0          0      )       (  0.5000000 )
                  (     0          0          1      )       ( -0.5000000 )

 cart.    s( 7) = (  0.0000000  1.0000000  0.0000000 )    f =( -0.5000000 )
                  ( -1.0000000  0.0000000  0.0000000 )       (  0.5000000 )
                  (  0.0000000  0.0000000  1.0000000 )       ( -0.3509351 )


      isym =  8      90 deg rotation - cart. axis [0,0,1]        

 cryst.   s( 8) = (     0          1          0      )    f =(  0.5000000 )
                  (    -1          0          0      )       ( -0.5000000 )
                  (     0          0          1      )       ( -0.5000000 )

 cart.    s( 8) = (  0.0000000 -1.0000000  0.0000000 )    f =(  0.5000000 )
                  (  1.0000000  0.0000000  0.0000000 )       ( -0.5000000 )
                  (  0.0000000  0.0000000  1.0000000 )       ( -0.3509351 )


      isym =  9     inversion                                    

 cryst.   s( 9) = (    -1          0          0      )
                  (     0         -1          0      )
                  (     0          0         -1      )

 cart.    s( 9) = ( -1.0000000  0.0000000  0.0000000 )
                  (  0.0000000 -1.0000000  0.0000000 )
                  (  0.0000000  0.0000000 -1.0000000 )


      isym = 10     inv. 180 deg rotation - cart. axis [0,0,1]   

 cryst.   s(10) = (     1          0          0      )
                  (     0          1          0      )
                  (     0          0         -1      )

 cart.    s(10) = (  1.0000000  0.0000000  0.0000000 )
                  (  0.0000000  1.0000000  0.0000000 )
                  (  0.0000000  0.0000000 -1.0000000 )


      isym = 11     inv. 180 deg rotation - cart. axis [0,1,0]   

 cryst.   s(11) = (     1          0          0      )    f =( -0.5000000 )
                  (     0         -1          0      )       (  0.5000000 )
                  (     0          0          1      )       ( -0.5000000 )

 cart.    s(11) = (  1.0000000  0.0000000  0.0000000 )    f =( -0.5000000 )
                  (  0.0000000 -1.0000000  0.0000000 )       (  0.5000000 )
                  (  0.0000000  0.0000000  1.0000000 )       ( -0.3509351 )


      isym = 12     inv. 180 deg rotation - cart. axis [1,0,0]   

 cryst.   s(12) = (    -1          0          0      )    f =(  0.5000000 )
                  (     0          1          0      )       ( -0.5000000 )
                  (     0          0          1      )       ( -0.5000000 )

 cart.    s(12) = ( -1.0000000  0.0000000  0.0000000 )    f =(  0.5000000 )
                  (  0.0000000  1.0000000  0.0000000 )       ( -0.5000000 )
                  (  0.0000000  0.0000000  1.0000000 )       ( -0.3509351 )


      isym = 13     inv. 180 deg rotation - cart. axis [1,1,0]   

 cryst.   s(13) = (     0         -1          0      )
                  (    -1          0          0      )
                  (     0          0          1      )

 cart.    s(13) = (  0.0000000 -1.0000000  0.0000000 )
                  ( -1.0000000  0.0000000  0.0000000 )
                  (  0.0000000  0.0000000  1.0000000 )


      isym = 14     inv. 180 deg rotation - cart. axis [1,-1,0]  

 cryst.   s(14) = (     0          1          0      )
                  (     1          0          0      )
                  (     0          0          1      )

 cart.    s(14) = (  0.0000000  1.0000000  0.0000000 )
                  (  1.0000000  0.0000000  0.0000000 )
                  (  0.0000000  0.0000000  1.0000000 )


      isym = 15     inv.  90 deg rotation - cart. axis [0,0,-1]  

 cryst.   s(15) = (     0          1          0      )    f =(  0.5000000 )
                  (    -1          0          0      )       ( -0.5000000 )
                  (     0          0         -1      )       (  0.5000000 )

 cart.    s(15) = (  0.0000000 -1.0000000  0.0000000 )    f =(  0.5000000 )
                  (  1.0000000  0.0000000  0.0000000 )       ( -0.5000000 )
                  (  0.0000000  0.0000000 -1.0000000 )       (  0.3509351 )


      isym = 16     inv.  90 deg rotation - cart. axis [0,0,1]   

 cryst.   s(16) = (     0         -1          0      )    f =( -0.5000000 )
                  (     1          0          0      )       (  0.5000000 )
                  (     0          0         -1      )       (  0.5000000 )

 cart.    s(16) = (  0.0000000  1.0000000  0.0000000 )    f =( -0.5000000 )
                  ( -1.0000000  0.0000000  0.0000000 )       (  0.5000000 )
                  (  0.0000000  0.0000000 -1.0000000 )       (  0.3509351 )


     double point group D_4h(4/mmm)
     there are 14 classes and  4 irreducible representations
     the character table:

       E     -E    2C4   -2C4   C2    2C2' 2C2'' i     -i    2S4   -2S4   s_h 
                               -C2   -2C2' -2C2'                         -s_h 
G_6+   2.00 -2.00  1.41 -1.41  0.00  0.00  0.00  2.00 -2.00  1.41 -1.41  0.00
G_7+   2.00 -2.00 -1.41  1.41  0.00  0.00  0.00  2.00 -2.00 -1.41  1.41  0.00
G_6-   2.00 -2.00  1.41 -1.41  0.00  0.00  0.00 -2.00  2.00 -1.41  1.41  0.00
G_7-   2.00 -2.00 -1.41  1.41  0.00  0.00  0.00 -2.00  2.00  1.41 -1.41  0.00

        2s_v  2s_d
       -2s_v -2s_d
G_6+   0.00  0.00
G_7+   0.00  0.00
G_6-   0.00  0.00
G_7-   0.00  0.00

     the symmetry operations in each class and the name of the first element:

     E             1
          identity                                               
     -E           -1
          identity E                                             
     2C4           7    8
           90 deg rotation - cart. axis [0,0,-1]                 
     -2C4         -7   -8
           90 deg rotation - cart. axis [0,0,-1] E               
      C2  -C2      2   -2
          180 deg rotation - cart. axis [0,0,1]                  
      2C2'-2C2'    3   -3    4   -4
          180 deg rotation - cart. axis [0,1,0]                  
     2C2''-2C2'    5   -5   -6    6
          180 deg rotation - cart. axis [1,1,0]                  
     i             9
          inversion                                              
     -i           -9
          inversion E                                            
     2S4          15   16
          inv.  90 deg rotation - cart. axis [0,0,-1]            
     -2S4        -15  -16
          inv.  90 deg rotation - cart. axis [0,0,-1] E          
      s_h -s_h    10  -10
          inv. 180 deg rotation - cart. axis [0,0,1]             
      2s_v-2s_v   11  -11   12  -12
          inv. 180 deg rotation - cart. axis [0,1,0]             
      2s_d-2s_d   13  -13  -14   14
          inv. 180 deg rotation - cart. axis [1,1,0]             

   Cartesian axes

     site n.     atom                  positions (alat units)
         1           Ir  tau(   1) = (   0.0000000   0.0000000   0.0000000  )
         2           Ir  tau(   2) = (   0.5000000   0.5000000   0.3509351  )
         3           O   tau(   3) = (   0.1916000   0.8084000   0.3509351  )
         4           O   tau(   4) = (   0.3084000   0.3084000   0.0000000  )
         5           O   tau(   5) = (   0.6916000   0.6916000   0.0000000  )
         6           O   tau(   6) = (   0.8084000   0.1916000   0.3509351  )

   Crystallographic axes

     site n.     atom                  positions (cryst. coord.)
         1           Ir  tau(   1) = (  0.0000000  0.0000000  0.0000000  )
         2           Ir  tau(   2) = (  0.5000000  0.5000000  0.5000000  )
         3           O   tau(   3) = (  0.1916000  0.8084000  0.5000000  )
         4           O   tau(   4) = (  0.3084000  0.3084000  0.0000000  )
         5           O   tau(   5) = (  0.6916000  0.6916000  0.0000000  )
         6           O   tau(   6) = (  0.8084000  0.1916000  0.5000000  )

     number of k points=    30  Methfessel-Paxton smearing, width (Ry)=  0.0050
                       cart. coord. in units 2pi/alat
        k(    1) = (   0.0000000   0.0000000   0.0000000), wk =   0.0051020
        k(    2) = (   0.0000000   0.0000000   0.3561912), wk =   0.0102041
        k(    3) = (   0.0000000   0.0000000  -0.7123824), wk =   0.0051020
        k(    4) = (   0.0000000   0.1428571   0.0000000), wk =   0.0204082
        k(    5) = (   0.0000000   0.1428571   0.3561912), wk =   0.0408163
        k(    6) = (   0.0000000   0.1428571  -0.7123824), wk =   0.0204082
        k(    7) = (   0.0000000   0.2857143   0.0000000), wk =   0.0204082
        k(    8) = (   0.0000000   0.2857143   0.3561912), wk =   0.0408163
        k(    9) = (   0.0000000   0.2857143  -0.7123824), wk =   0.0204082
        k(   10) = (   0.0000000   0.4285714   0.0000000), wk =   0.0204082
        k(   11) = (   0.0000000   0.4285714   0.3561912), wk =   0.0408163
        k(   12) = (   0.0000000   0.4285714  -0.7123824), wk =   0.0204082
        k(   13) = (   0.1428571   0.1428571   0.0000000), wk =   0.0204082
        k(   14) = (   0.1428571   0.1428571   0.3561912), wk =   0.0408163
        k(   15) = (   0.1428571   0.1428571  -0.7123824), wk =   0.0204082
        k(   16) = (   0.1428571   0.2857143   0.0000000), wk =   0.0408163
        k(   17) = (   0.1428571   0.2857143   0.3561912), wk =   0.0816327
        k(   18) = (   0.1428571   0.2857143  -0.7123824), wk =   0.0408163
        k(   19) = (   0.1428571   0.4285714   0.0000000), wk =   0.0408163
        k(   20) = (   0.1428571   0.4285714   0.3561912), wk =   0.0816327
        k(   21) = (   0.1428571   0.4285714  -0.7123824), wk =   0.0408163
        k(   22) = (   0.2857143   0.2857143   0.0000000), wk =   0.0204082
        k(   23) = (   0.2857143   0.2857143   0.3561912), wk =   0.0408163
        k(   24) = (   0.2857143   0.2857143  -0.7123824), wk =   0.0204082
        k(   25) = (   0.2857143   0.4285714   0.0000000), wk =   0.0408163
        k(   26) = (   0.2857143   0.4285714   0.3561912), wk =   0.0816327
        k(   27) = (   0.2857143   0.4285714  -0.7123824), wk =   0.0408163
        k(   28) = (   0.4285714   0.4285714   0.0000000), wk =   0.0204082
        k(   29) = (   0.4285714   0.4285714   0.3561912), wk =   0.0408163
        k(   30) = (   0.4285714   0.4285714  -0.7123824), wk =   0.0204082

                       cryst. coord.
        k(    1) = (   0.0000000   0.0000000   0.0000000), wk =   0.0051020
        k(    2) = (   0.0000000   0.0000000   0.2500000), wk =   0.0102041
        k(    3) = (   0.0000000   0.0000000  -0.5000000), wk =   0.0051020
        k(    4) = (   0.0000000   0.1428571   0.0000000), wk =   0.0204082
        k(    5) = (   0.0000000   0.1428571   0.2500000), wk =   0.0408163
        k(    6) = (   0.0000000   0.1428571  -0.5000000), wk =   0.0204082
        k(    7) = (   0.0000000   0.2857143   0.0000000), wk =   0.0204082
        k(    8) = (   0.0000000   0.2857143   0.2500000), wk =   0.0408163
        k(    9) = (   0.0000000   0.2857143  -0.5000000), wk =   0.0204082
        k(   10) = (   0.0000000   0.4285714   0.0000000), wk =   0.0204082
        k(   11) = (   0.0000000   0.4285714   0.2500000), wk =   0.0408163
        k(   12) = (   0.0000000   0.4285714  -0.5000000), wk =   0.0204082
        k(   13) = (   0.1428571   0.1428571   0.0000000), wk =   0.0204082
        k(   14) = (   0.1428571   0.1428571   0.2500000), wk =   0.0408163
        k(   15) = (   0.1428571   0.1428571  -0.5000000), wk =   0.0204082
        k(   16) = (   0.1428571   0.2857143   0.0000000), wk =   0.0408163
        k(   17) = (   0.1428571   0.2857143   0.2500000), wk =   0.0816327
        k(   18) = (   0.1428571   0.2857143  -0.5000000), wk =   0.0408163
        k(   19) = (   0.1428571   0.4285714   0.0000000), wk =   0.0408163
        k(   20) = (   0.1428571   0.4285714   0.2500000), wk =   0.0816327
        k(   21) = (   0.1428571   0.4285714  -0.5000000), wk =   0.0408163
        k(   22) = (   0.2857143   0.2857143   0.0000000), wk =   0.0204082
        k(   23) = (   0.2857143   0.2857143   0.2500000), wk =   0.0408163
        k(   24) = (   0.2857143   0.2857143  -0.5000000), wk =   0.0204082
        k(   25) = (   0.2857143   0.4285714   0.0000000), wk =   0.0408163
        k(   26) = (   0.2857143   0.4285714   0.2500000), wk =   0.0816327
        k(   27) = (   0.2857143   0.4285714  -0.5000000), wk =   0.0408163
        k(   28) = (   0.4285714   0.4285714   0.0000000), wk =   0.0204082
        k(   29) = (   0.4285714   0.4285714   0.2500000), wk =   0.0408163
        k(   30) = (   0.4285714   0.4285714  -0.5000000), wk =   0.0204082

     Dense  grid:    42999 G-vectors     FFT dimensions: (  50,  50,  36)

     Dynamical RAM for                 wfc:       0.36 MB

     Dynamical RAM for     wfc (w. buffer):      11.06 MB

     Dynamical RAM for           str. fact:       0.04 MB

     Dynamical RAM for           local pot:       0.00 MB

     Dynamical RAM for          nlocal pot:       0.46 MB

     Dynamical RAM for                qrad:      20.10 MB

     Dynamical RAM for          rho,v,vnew:       0.70 MB

     Dynamical RAM for               rhoin:       0.23 MB

     Dynamical RAM for            rho*nmix:       1.31 MB

     Dynamical RAM for           G-vectors:       0.09 MB

     Dynamical RAM for          h,s,v(r/c):       0.04 MB

     Dynamical RAM for          <psi|beta>:       0.38 MB

     Dynamical RAM for                 psi:       0.71 MB

     Dynamical RAM for                hpsi:       0.71 MB

     Dynamical RAM for      wfcinit/wfcrot:       0.67 MB

     Estimated static dynamical RAM per process >      33.05 MB

     Estimated max dynamical RAM per process >      36.21 MB

     Estimated total dynamical RAM >       1.13 GB

     Initial potential from superposition of free atoms

     starting charge      57.9997, renormalised to      58.0000
     Starting wfcs are   72 randomized atomic wfcs

     total cpu time spent up to now is        1.7 secs

     Self-consistent Calculation

     iteration #  1     ecut=    80.00 Ry     beta= 0.70
     Davidson diagonalization with overlap

---- Real-time Memory Report at c_bands before calling an iterative solver
            85 MiB given to the printing process from OS
             0 MiB allocation reported by mallinfo(arena+hblkhd)
        229497 MiB available memory on the node where the printing process lives
------------------
     ethr =  1.00E-02,  avg # of iterations =  2.6

     total cpu time spent up to now is        6.9 secs

     total energy              =    -552.42871229 Ry
     estimated scf accuracy    <       1.21275393 Ry

     iteration #  2     ecut=    80.00 Ry     beta= 0.70
     Davidson diagonalization with overlap

---- Real-time Memory Report at c_bands before calling an iterative solver
            91 MiB given to the printing process from OS
             0 MiB allocation reported by mallinfo(arena+hblkhd)
        229352 MiB available memory on the node where the printing process lives
------------------
     ethr =  2.09E-03,  avg # of iterations =  2.1

     total cpu time spent up to now is       12.5 secs

     total energy              =    -552.26973698 Ry
     estimated scf accuracy    <       4.31769438 Ry

     iteration #  3     ecut=    80.00 Ry     beta= 0.70
     Davidson diagonalization with overlap

---- Real-time Memory Report at c_bands before calling an iterative solver
            95 MiB given to the printing process from OS
             0 MiB allocation reported by mallinfo(arena+hblkhd)
        229289 MiB available memory on the node where the printing process lives
------------------
     ethr =  2.09E-03,  avg # of iterations =  2.0

     total cpu time spent up to now is       17.8 secs

     total energy              =    -553.07668563 Ry
     estimated scf accuracy    <       0.03559772 Ry

     iteration #  4     ecut=    80.00 Ry     beta= 0.70
     Davidson diagonalization with overlap

---- Real-time Memory Report at c_bands before calling an iterative solver
            96 MiB given to the printing process from OS
             0 MiB allocation reported by mallinfo(arena+hblkhd)
        229281 MiB available memory on the node where the printing process lives
------------------
     ethr =  6.14E-05,  avg # of iterations =  3.2

     total cpu time spent up to now is       23.3 secs

     total energy              =    -553.08017612 Ry
     estimated scf accuracy    <       0.00528340 Ry

     iteration #  5     ecut=    80.00 Ry     beta= 0.70
     Davidson diagonalization with overlap

---- Real-time Memory Report at c_bands before calling an iterative solver
            96 MiB given to the printing process from OS
             0 MiB allocation reported by mallinfo(arena+hblkhd)
        229277 MiB available memory on the node where the printing process lives
------------------
     ethr =  9.11E-06,  avg # of iterations =  2.4

     total cpu time spent up to now is       28.1 secs

     total energy              =    -553.08112548 Ry
     estimated scf accuracy    <       0.00026435 Ry

     iteration #  6     ecut=    80.00 Ry     beta= 0.70
     Davidson diagonalization with overlap

---- Real-time Memory Report at c_bands before calling an iterative solver
            96 MiB given to the printing process from OS
             0 MiB allocation reported by mallinfo(arena+hblkhd)
        229272 MiB available memory on the node where the printing process lives
------------------
     ethr =  4.56E-07,  avg # of iterations =  4.4

     total cpu time spent up to now is       33.3 secs

     total energy              =    -553.08116039 Ry
     estimated scf accuracy    <       0.00000952 Ry

     iteration #  7     ecut=    80.00 Ry     beta= 0.70
     Davidson diagonalization with overlap

---- Real-time Memory Report at c_bands before calling an iterative solver
            97 MiB given to the printing process from OS
             0 MiB allocation reported by mallinfo(arena+hblkhd)
        229269 MiB available memory on the node where the printing process lives
------------------
     ethr =  1.64E-08,  avg # of iterations =  2.0

     total cpu time spent up to now is       38.8 secs

     total energy              =    -553.08116348 Ry
     estimated scf accuracy    <       0.00000046 Ry

     iteration #  8     ecut=    80.00 Ry     beta= 0.70
     Davidson diagonalization with overlap

---- Real-time Memory Report at c_bands before calling an iterative solver
            99 MiB given to the printing process from OS
             0 MiB allocation reported by mallinfo(arena+hblkhd)
        229198 MiB available memory on the node where the printing process lives
------------------
     ethr =  7.88E-10,  avg # of iterations =  2.0

     total cpu time spent up to now is       43.5 secs

     total energy              =    -553.08116351 Ry
     estimated scf accuracy    <       0.00000006 Ry

     iteration #  9     ecut=    80.00 Ry     beta= 0.70
     Davidson diagonalization with overlap

---- Real-time Memory Report at c_bands before calling an iterative solver
            99 MiB given to the printing process from OS
             0 MiB allocation reported by mallinfo(arena+hblkhd)
        229219 MiB available memory on the node where the printing process lives
------------------
     ethr =  1.02E-10,  avg # of iterations =  2.0

     total cpu time spent up to now is       48.8 secs

     total energy              =    -553.08116352 Ry
     estimated scf accuracy    <          2.9E-09 Ry

     iteration # 10     ecut=    80.00 Ry     beta= 0.70
     Davidson diagonalization with overlap

---- Real-time Memory Report at c_bands before calling an iterative solver
            99 MiB given to the printing process from OS
             0 MiB allocation reported by mallinfo(arena+hblkhd)
        229207 MiB available memory on the node where the printing process lives
------------------
     ethr =  5.08E-12,  avg # of iterations =  2.3

     total cpu time spent up to now is       54.1 secs

     End of self-consistent calculation

          k = 0.0000 0.0000 0.0000 (  5409 PWs)   bands (ev):

   -79.3902 -79.3902 -79.3889 -79.3889 -46.2323 -46.2323 -46.2216 -46.2216
   -32.7701 -32.7701 -32.7575 -32.7575 -32.6286 -32.6286 -32.6163 -32.6163
    -7.0715  -7.0715  -5.9155  -5.9155  -5.0004  -5.0004  -4.7990  -4.7990
     4.2702   4.2702   4.5175   4.5175   6.0326   6.0326   6.1442   6.1442
     6.2578   6.2578   8.7881   8.7881   8.9408   8.9408   9.1985   9.1985
    10.3354  10.3354  10.9900  10.9900  10.9919  10.9919  11.0344  11.0344
    11.1981  11.1981  11.3775  11.3775  11.6507  11.6507  11.6724  11.6724
    12.0548  12.0548  14.6418  14.6418  15.0669  15.0669  17.6877  17.6877
    17.8973  17.8973  18.0446  18.0446  19.4486  19.4486

     occupation numbers 
     1.0000   1.0000   1.0000   1.0000   1.0000   1.0000   1.0000   1.0000
     1.0000   1.0000   1.0000   1.0000   1.0000   1.0000   1.0000   1.0000
     1.0000   1.0000   1.0000   1.0000   1.0000   1.0000   1.0000   1.0000
     1.0000   1.0000   1.0000   1.0000   1.0000   1.0000   1.0000   1.0000
     1.0000   1.0000   1.0000   1.0000   1.0000   1.0000   1.0000   1.0000
     1.0000   1.0000   1.0000   1.0000   1.0000   1.0000   1.0000   1.0000
     1.0000   1.0000   1.0000   1.0000   1.0000   1.0000   1.0000   1.0000
     1.0000   1.0000  -0.0000  -0.0000  -0.0000  -0.0000  -0.0000  -0.0000
    -0.0000  -0.0000  -0.0000  -0.0000  -0.0000  -0.0000

          k = 0.0000 0.0000 0.3562 (  5381 PWs)   bands (ev):

   -79.3888 -79.3888 -79.3879 -79.3879 -46.2363 -46.2363 -46.2288 -46.2288
   -32.7866 -32.7866 -32.7851 -32.7851 -32.6458 -32.6458 -32.6263 -32.6263
    -6.5568  -6.5568  -5.6890  -5.6890  -5.2157  -5.2157  -5.0959  -5.0959
     5.0385   5.0385   5.0456   5.0456   6.4671   6.4671   6.4701   6.4701
     6.8569   6.8569   7.2527   7.2527   8.2928   8.2928   9.1151   9.1151
     9.3306   9.3306   9.4473   9.4473   9.7674   9.7674  10.5837  10.5837
    11.7956  11.7956  11.9520  11.9520  12.1482  12.1482  13.1826  13.1826
    13.2024  13.2024  14.5164  14.5164  15.6395  15.6395  16.6609  16.6609
    16.9527  16.9527  17.9983  17.9983  19.8603  19.8603

     occupation numbers 
     1.0000   1.0000   1.0000   1.0000   1.0000   1.0000   1.0000   1.0000
     1.0000   1.0000   1.0000   1.0000   1.0000   1.0000   1.0000   1.0000
     1.0000   1.0000   1.0000   1.0000   1.0000   1.0000   1.0000   1.0000
     1.0000   1.0000   1.0000   1.0000   1.0000   1.0000   1.0000   1.0000
     1.0000   1.0000   1.0000   1.0000   1.0000   1.0000   1.0000   1.0000
     1.0000   1.0000   1.0000   1.0000   1.0000   1.0000   1.0000   1.0000
     1.0000   1.0000   1.0000   1.0000   1.0000   1.0000   1.0000   1.0000
     1.0000   1.0000  -0.0000  -0.0000  -0.0000  -0.0000  -0.0000  -0.0000
    -0.0000  -0.0000  -0.0000  -0.0000  -0.0000  -0.0000

          k = 0.0000 0.0000-0.7124 (  5314 PWs)   bands (ev):

   -79.3872 -79.3872 -79.3872 -79.3872 -46.2381 -46.2381 -46.2381 -46.2381
   -32.8154 -32.8154 -32.8154 -32.8154 -32.6415 -32.6415 -32.6415 -32.6415
    -5.7307  -5.7307  -5.7307  -5.7307  -5.3979  -5.3979  -5.3979  -5.3979
     5.7330   5.7330   5.7330   5.7330   6.7033   6.7033   6.7033   6.7033
     7.0999   7.0999   7.0999   7.0999   8.2023   8.2023   8.2023   8.2023
     8.5510   8.5510   8.5510   8.5510   9.9596   9.9596   9.9596   9.9596
    11.8931  11.8931  11.8931  11.8931  13.0792  13.0792  13.0792  13.0792
    14.1222  14.1222  14.1222  14.1222  16.0922  16.0922  16.0922  16.0922
    16.6068  16.6068  16.6068  16.6068  22.9250  22.9250

     occupation numbers 
     1.0000   1.0000   1.0000   1.0000   1.0000   1.0000   1.0000   1.0000
     1.0000   1.0000   1.0000   1.0000   1.0000   1.0000   1.0000   1.0000
     1.0000   1.0000   1.0000   1.0000   1.0000   1.0000   1.0000   1.0000
     1.0000   1.0000   1.0000   1.0000   1.0000   1.0000   1.0000   1.0000
     1.0000   1.0000   1.0000   1.0000   1.0000   1.0000   1.0000   1.0000
     1.0000   1.0000   1.0000   1.0000   1.0000   1.0000   1.0000   1.0000
     1.0000   1.0000   1.0000   1.0000   1.0000   1.0000   1.0000   1.0000
    -0.0000  -0.0000  -0.0000  -0.0000  -0.0000  -0.0000  -0.0000  -0.0000
    -0.0000  -0.0000  -0.0000  -0.0000  -0.0000  -0.0000

          k = 0.0000 0.1429 0.0000 (  5381 PWs)   bands (ev):

   -79.3901 -79.3901 -79.3889 -79.3889 -46.2318 -46.2318 -46.2221 -46.2221
   -32.7689 -32.7689 -32.7575 -32.7575 -32.6287 -32.6287 -32.6176 -32.6176
    -6.9947  -6.9947  -5.9065  -5.9065  -5.0668  -5.0668  -4.8752  -4.8752
     4.4653   4.4653   4.6650   4.6650   6.0622   6.0622   6.1618   6.1618
     6.3853   6.3853   8.6489   8.6489   8.6918   8.6918   8.9251   8.9251
     9.9470   9.9470  10.3709  10.3709  10.7307  10.7307  11.3986  11.3986
    11.4768  11.4768  11.5370  11.5370  11.7538  11.7538  11.8946  11.8946
    12.3047  12.3047  14.8854  14.8854  15.0048  15.0048  17.6102  17.6102
    17.9363  17.9363  18.2502  18.2502  19.2646  19.2646

     occupation numbers 
     1.0000   1.0000   1.0000   1.0000   1.0000   1.0000   1.0000   1.0000
     1.0000   1.0000   1.0000   1.0000   1.0000   1.0000   1.0000   1.0000
     1.0000   1.0000   1.0000   1.0000   1.0000   1.0000   1.0000   1.0000
     1.0000   1.0000   1.0000   1.0000   1.0000   1.0000   1.0000   1.0000
     1.0000   1.0000   1.0000   1.0000   1.0000   1.0000   1.0000   1.0000
     1.0000   1.0000   1.0000   1.0000   1.0000   1.0000   1.0000   1.0000
     1.0000   1.0000   1.0000   1.0000   1.0000   1.0000   1.0000   1.0000
     1.0000   1.0000  -0.0000  -0.0000  -0.0000  -0.0000  -0.0000  -0.0000
    -0.0000  -0.0000  -0.0000  -0.0000  -0.0000  -0.0000

          k = 0.0000 0.1429 0.3562 (  5385 PWs)   bands (ev):

   -79.3888 -79.3888 -79.3879 -79.3879 -46.2360 -46.2360 -46.2291 -46.2291
   -32.7908 -32.7908 -32.7804 -32.7804 -32.6458 -32.6458 -32.6268 -32.6268
    -6.4960  -6.4960  -5.6701  -5.6701  -5.2697  -5.2697  -5.1474  -5.1474
     5.1358   5.1358   5.1933   5.1933   6.4127   6.4127   6.4819   6.4819
     7.0462   7.0462   7.2048   7.2048   7.9468   7.9468   9.0651   9.0651
     9.3423   9.3423   9.4610   9.4610   9.5417   9.5417  10.7744  10.7744
    11.6551  11.6551  12.0597  12.0597  12.2826  12.2826  13.0592  13.0592
    13.2833  13.2833  14.4312  14.4312  15.8362  15.8362  16.4361  16.4361
    16.8393  16.8393  18.2326  18.2326  20.0353  20.0353

     occupation numbers 
     1.0000   1.0000   1.0000   1.0000   1.0000   1.0000   1.0000   1.0000
     1.0000   1.0000   1.0000   1.0000   1.0000   1.0000   1.0000   1.0000
     1.0000   1.0000   1.0000   1.0000   1.0000   1.0000   1.0000   1.0000
     1.0000   1.0000   1.0000   1.0000   1.0000   1.0000   1.0000   1.0000
     1.0000   1.0000   1.0000   1.0000   1.0000   1.0000   1.0000   1.0000
     1.0000   1.0000   1.0000   1.0000   1.0000   1.0000   1.0000   1.0000
     1.0000   1.0000   1.0000   1.0000   1.0000   1.0000   1.0000   1.0000
     1.0000   1.0000  -0.0000  -0.0000  -0.0000  -0.0000  -0.0000  -0.0000
    -0.0000  -0.0000  -0.0000  -0.0000  -0.0000  -0.0000

          k = 0.0000 0.1429-0.7124 (  5376 PWs)   bands (ev):

   -79.3872 -79.3872 -79.3872 -79.3872 -46.2386 -46.2386 -46.2377 -46.2377
   -32.8223 -32.8223 -32.8088 -32.8088 -32.6459 -32.6459 -32.6371 -32.6371
    -5.7595  -5.7595  -5.7427  -5.7427  -5.4178  -5.4178  -5.3300  -5.3300
     5.7220   5.7220   5.7734   5.7734   6.3098   6.3098   6.4061   6.4061
     7.4188   7.4188   7.4485   7.4485   8.1196   8.1196   8.2860   8.2860
     8.7570   8.7570   8.8076   8.8076   9.8126   9.8126   9.8497   9.8497
    11.8795  11.8795  11.9100  11.9100  12.7455  12.7455  12.9423  12.9423
    14.0454  14.0454  14.3131  14.3131  15.6384  15.6384  15.7382  15.7382
    17.0285  17.0285  17.2256  17.2256  22.9313  22.9701

     occupation numbers 
     1.0000   1.0000   1.0000   1.0000   1.0000   1.0000   1.0000   1.0000
     1.0000   1.0000   1.0000   1.0000   1.0000   1.0000   1.0000   1.0000
     1.0000   1.0000   1.0000   1.0000   1.0000   1.0000   1.0000   1.0000
     1.0000   1.0000   1.0000   1.0000   1.0000   1.0000   1.0000   1.0000
     1.0000   1.0000   1.0000   1.0000   1.0000   1.0000   1.0000   1.0000
     1.0000   1.0000   1.0000   1.0000   1.0000   1.0000   1.0000   1.0000
     1.0000   1.0000   1.0000   1.0000   1.0000   1.0000   1.0000   1.0000
    -0.0001  -0.0001  -0.0000  -0.0000  -0.0000  -0.0000  -0.0000  -0.0000
    -0.0000  -0.0000  -0.0000  -0.0000  -0.0000  -0.0000

          k = 0.0000 0.2857 0.0000 (  5376 PWs)   bands (ev):

   -79.3899 -79.3899 -79.3891 -79.3891 -46.2303 -46.2303 -46.2236 -46.2236
   -32.7658 -32.7658 -32.7578 -32.7578 -32.6286 -32.6286 -32.6210 -32.6210
    -6.7757  -6.7757  -5.9254  -5.9254  -5.2304  -5.2304  -5.0353  -5.0353
     4.9689   4.9689   5.0716   5.0716   6.1310   6.1310   6.2025   6.2025
     6.7683   6.7683   7.9953   7.9953   8.1685   8.1685   8.6469   8.6469
     9.3434   9.3434   9.4158   9.4158  10.6077  10.6077  11.2950  11.2950
    11.7888  11.7888  11.8999  11.8999  12.1252  12.1252  12.3025  12.3025
    12.7624  12.7624  14.4892  14.4892  15.8289  15.8289  17.4195  17.4195
    17.6790  17.6790  18.7263  18.7263  19.1523  19.1523

     occupation numbers 
     1.0000   1.0000   1.0000   1.0000   1.0000   1.0000   1.0000   1.0000
     1.0000   1.0000   1.0000   1.0000   1.0000   1.0000   1.0000   1.0000
     1.0000   1.0000   1.0000   1.0000   1.0000   1.0000   1.0000   1.0000
     1.0000   1.0000   1.0000   1.0000   1.0000   1.0000   1.0000   1.0000
     1.0000   1.0000   1.0000   1.0000   1.0000   1.0000   1.0000   1.0000
     1.0000   1.0000   1.0000   1.0000   1.0000   1.0000   1.0000   1.0000
     1.0000   1.0000   1.0000   1.0000   1.0000   1.0000   1.0000   1.0000
     1.0000   1.0000  -0.0000  -0.0000  -0.0000  -0.0000  -0.0000  -0.0000
    -0.0000  -0.0000  -0.0000  -0.0000  -0.0000  -0.0000

          k = 0.0000 0.2857 0.3562 (  5372 PWs)   bands (ev):

   -79.3886 -79.3886 -79.3881 -79.3881 -46.2350 -46.2350 -46.2302 -46.2302
   -32.7944 -32.7944 -32.7758 -32.7758 -32.6458 -32.6458 -32.6283 -32.6283
    -6.3225  -6.3225  -5.6285  -5.6285  -5.4377  -5.4377  -5.2517  -5.2517
     5.4488   5.4488   5.5499   5.5499   6.3933   6.3933   6.5125   6.5125
     6.9513   6.9513   7.3513   7.3513   7.6241   7.6241   8.5197   8.5197
     8.8560   8.8560   9.4460   9.4460   9.8333   9.8333  10.9882  10.9882
    11.4110  11.4110  12.3599  12.3599  12.4807  12.4807  12.8666  12.8666
    13.4474  13.4474  14.2150  14.2150  15.9658  15.9658  16.1176  16.1176
    16.9384  16.9384  18.3636  18.3636  20.6289  20.6289

     occupation numbers 
     1.0000   1.0000   1.0000   1.0000   1.0000   1.0000   1.0000   1.0000
     1.0000   1.0000   1.0000   1.0000   1.0000   1.0000   1.0000   1.0000
     1.0000   1.0000   1.0000   1.0000   1.0000   1.0000   1.0000   1.0000
     1.0000   1.0000   1.0000   1.0000   1.0000   1.0000   1.0000   1.0000
     1.0000   1.0000   1.0000   1.0000   1.0000   1.0000   1.0000   1.0000
     1.0000   1.0000   1.0000   1.0000   1.0000   1.0000   1.0000   1.0000
     1.0000   1.0000   1.0000   1.0000   1.0000   1.0000   1.0000   1.0000
     1.0000   1.0000  -0.0000  -0.0000  -0.0000  -0.0000  -0.0000  -0.0000
    -0.0000  -0.0000  -0.0000  -0.0000  -0.0000  -0.0000

          k = 0.0000 0.2857-0.7124 (  5352 PWs)   bands (ev):

   -79.3872 -79.3872 -79.3872 -79.3872 -46.2389 -46.2389 -46.2374 -46.2374
   -32.8279 -32.8279 -32.8035 -32.8035 -32.6494 -32.6494 -32.6335 -32.6335
    -5.7967  -5.7967  -5.7859  -5.7859  -5.3945  -5.3945  -5.2560  -5.2560
     5.6169   5.6169   5.6981   5.6981   6.1026   6.1026   6.2034   6.2034
     7.6093   7.6093   7.8162   7.8162   8.1527   8.1527   8.3651   8.3651
     9.2443   9.2443   9.2787   9.2787   9.6584   9.6584   9.6622   9.6622
    11.8031  11.8031  11.8795  11.8795  12.1182  12.1182  12.4872  12.4872
    14.1021  14.1021  14.4493  14.4493  15.2476  15.2476  15.3044  15.3044
    17.7109  17.7109  17.9061  17.9061  22.9969  22.9980

     occupation numbers 
     1.0000   1.0000   1.0000   1.0000   1.0000   1.0000   1.0000   1.0000
     1.0000   1.0000   1.0000   1.0000   1.0000   1.0000   1.0000   1.0000
     1.0000   1.0000   1.0000   1.0000   1.0000   1.0000   1.0000   1.0000
     1.0000   1.0000   1.0000   1.0000   1.0000   1.0000   1.0000   1.0000
     1.0000   1.0000   1.0000   1.0000   1.0000   1.0000   1.0000   1.0000
     1.0000   1.0000   1.0000   1.0000   1.0000   1.0000   1.0000   1.0000
     1.0000   1.0000   1.0000   1.0000   1.0000   1.0000   1.0000   1.0000
    -0.0000  -0.0000  -0.0000  -0.0000  -0.0000  -0.0000  -0.0000  -0.0000
    -0.0000  -0.0000  -0.0000  -0.0000  -0.0000  -0.0000

          k = 0.0000 0.4286 0.0000 (  5372 PWs)   bands (ev):

   -79.3897 -79.3897 -79.3894 -79.3894 -46.2282 -46.2282 -46.2258 -46.2258
   -32.7621 -32.7621 -32.7592 -32.7592 -32.6275 -32.6275 -32.6248 -32.6248
    -6.4533  -6.4533  -6.1152  -6.1152  -5.2972  -5.2972  -5.1968  -5.1968
     5.5081   5.5081   5.5558   5.5558   6.2132   6.2132   6.2375   6.2375
     7.2457   7.2457   7.4578   7.4578   7.5614   7.5614   8.3412   8.3412
     8.6768   8.6768   8.9290   8.9290  10.7142  10.7142  10.9774  10.9774
    12.0525  12.0525  12.1256  12.1256  12.4103  12.4103  12.5240  12.5240
    13.3299  13.3299  13.9328  13.9328  16.8446  16.8446  17.2831  17.2831
    17.4444  17.4444  17.9253  17.9253  20.2433  20.2433

     occupation numbers 
     1.0000   1.0000   1.0000   1.0000   1.0000   1.0000   1.0000   1.0000
     1.0000   1.0000   1.0000   1.0000   1.0000   1.0000   1.0000   1.0000
     1.0000   1.0000   1.0000   1.0000   1.0000   1.0000   1.0000   1.0000
     1.0000   1.0000   1.0000   1.0000   1.0000   1.0000   1.0000   1.0000
     1.0000   1.0000   1.0000   1.0000   1.0000   1.0000   1.0000   1.0000
     1.0000   1.0000   1.0000   1.0000   1.0000   1.0000   1.0000   1.0000
     1.0000   1.0000   1.0000   1.0000   1.0000   1.0000   1.0000   1.0000
     1.0000   1.0000  -0.0342  -0.0342  -0.0000  -0.0000  -0.0000  -0.0000
    -0.0000  -0.0000  -0.0000  -0.0000  -0.0000  -0.0000

          k = 0.0000 0.4286 0.3562 (  5388 PWs)   bands (ev):

   -79.3885 -79.3885 -79.3882 -79.3882 -46.2337 -46.2337 -46.2315 -46.2315
   -32.7963 -32.7963 -32.7732 -32.7732 -32.6457 -32.6457 -32.6295 -32.6295
    -6.0645  -6.0645  -5.7710  -5.7710  -5.4902  -5.4902  -5.3599  -5.3599
     5.8620   5.8620   5.9597   5.9597   6.4252   6.4252   6.5575   6.5575
     6.7144   6.7144   6.8459   6.8459   8.0310   8.0310   8.2031   8.2031
     8.4971   8.4971   9.0603   9.0603  10.2525  10.2525  10.6196  10.6196
    11.8421  11.8421  12.2358  12.2358  12.6227  12.6227  12.8954  12.8954
    13.5661  13.5661  14.0374  14.0374  15.7713  15.7713  15.9278  15.9278
    17.5118  17.5118  18.0839  18.0839  21.5173  21.5173

     occupation numbers 
     1.0000   1.0000   1.0000   1.0000   1.0000   1.0000   1.0000   1.0000
     1.0000   1.0000   1.0000   1.0000   1.0000   1.0000   1.0000   1.0000
     1.0000   1.0000   1.0000   1.0000   1.0000   1.0000   1.0000   1.0000
     1.0000   1.0000   1.0000   1.0000   1.0000   1.0000   1.0000   1.0000
     1.0000   1.0000   1.0000   1.0000   1.0000   1.0000   1.0000   1.0000
     1.0000   1.0000   1.0000   1.0000   1.0000   1.0000   1.0000   1.0000
     1.0000   1.0000   1.0000   1.0000   1.0000   1.0000   1.0000   1.0000
     1.0000   1.0000  -0.0002  -0.0002  -0.0000  -0.0000  -0.0000  -0.0000
    -0.0000  -0.0000  -0.0000  -0.0000  -0.0000  -0.0000

          k = 0.0000 0.4286-0.7124 (  5356 PWs)   bands (ev):

   -79.3872 -79.3872 -79.3872 -79.3872 -46.2391 -46.2391 -46.2372 -46.2372
   -32.8310 -32.8310 -32.8007 -32.8007 -32.6513 -32.6513 -32.6316 -32.6316
    -5.8198  -5.8198  -5.8187  -5.8187  -5.3706  -5.3706  -5.2105  -5.2105
     5.4672   5.4672   5.5144   5.5144   6.1935   6.1935   6.2099   6.2099
     7.5525   7.5525   8.0466   8.0466   8.4065   8.4065   8.5329   8.5329
     8.9730   8.9730   9.0216   9.0216  10.3295  10.3295  10.3609  10.3609
    11.2881  11.2881  11.3138  11.3138  11.8990  11.8990  12.2457  12.2457
    14.1538  14.1538  14.5000  14.5000  15.0423  15.0423  15.0877  15.0877
    18.1632  18.1632  18.3365  18.3365  23.1089  23.1090

     occupation numbers 
     1.0000   1.0000   1.0000   1.0000   1.0000   1.0000   1.0000   1.0000
     1.0000   1.0000   1.0000   1.0000   1.0000   1.0000   1.0000   1.0000
     1.0000   1.0000   1.0000   1.0000   1.0000   1.0000   1.0000   1.0000
     1.0000   1.0000   1.0000   1.0000   1.0000   1.0000   1.0000   1.0000
     1.0000   1.0000   1.0000   1.0000   1.0000   1.0000   1.0000   1.0000
     1.0000   1.0000   1.0000   1.0000   1.0000   1.0000   1.0000   1.0000
     1.0000   1.0000   1.0000   1.0000   1.0000   1.0000   1.0000   1.0000
    -0.0000  -0.0000  -0.0000  -0.0000  -0.0000  -0.0000  -0.0000  -0.0000
    -0.0000  -0.0000  -0.0000  -0.0000  -0.0000  -0.0000

          k = 0.1429 0.1429 0.0000 (  5363 PWs)   bands (ev):

   -79.3900 -79.3900 -79.3890 -79.3890 -46.2313 -46.2313 -46.2226 -46.2226
   -32.7680 -32.7680 -32.7575 -32.7575 -32.6287 -32.6287 -32.6186 -32.6186
    -6.9278  -6.9278  -5.9042  -5.9042  -5.1538  -5.1538  -4.8949  -4.8949
     4.3885   4.3885   5.0347   5.0347   6.0603   6.0603   6.1923   6.1923
     6.5098   6.5098   8.0761   8.0761   8.6605   8.6605   9.0237   9.0237
     9.8671   9.8671  10.3014  10.3014  10.4732  10.4732  11.1513  11.1513
    11.4575  11.4575  11.6136  11.6136  11.9593  11.9593  12.1314  12.1314
    12.5350  12.5350  14.7976  14.7976  15.1436  15.1436  17.4932  17.4932
    17.9209  17.9209  18.6275  18.6275  19.0711  19.0711

     occupation numbers 
     1.0000   1.0000   1.0000   1.0000   1.0000   1.0000   1.0000   1.0000
     1.0000   1.0000   1.0000   1.0000   1.0000   1.0000   1.0000   1.0000
     1.0000   1.0000   1.0000   1.0000   1.0000   1.0000   1.0000   1.0000
     1.0000   1.0000   1.0000   1.0000   1.0000   1.0000   1.0000   1.0000
     1.0000   1.0000   1.0000   1.0000   1.0000   1.0000   1.0000   1.0000
     1.0000   1.0000   1.0000   1.0000   1.0000   1.0000   1.0000   1.0000
     1.0000   1.0000   1.0000   1.0000   1.0000   1.0000   1.0000   1.0000
     1.0000   1.0000  -0.0000  -0.0000  -0.0000  -0.0000  -0.0000  -0.0000
    -0.0000  -0.0000  -0.0000  -0.0000  -0.0000  -0.0000

          k = 0.1429 0.1429 0.3562 (  5387 PWs)   bands (ev):

   -79.3887 -79.3887 -79.3880 -79.3880 -46.2357 -46.2357 -46.2295 -46.2295
   -32.7921 -32.7921 -32.7789 -32.7789 -32.6456 -32.6456 -32.6274 -32.6274
    -6.4423  -6.4423  -5.6517  -5.6517  -5.3451  -5.3451  -5.1608  -5.1608
     5.0333   5.0333   5.5042   5.5042   6.2975   6.2975   6.5972   6.5972
     7.0093   7.0093   7.2450   7.2450   7.8959   7.8959   8.6800   8.6800
     9.1533   9.1533   9.5834   9.5834   9.7814   9.7814  10.9232  10.9232
    11.4760  11.4760  11.9920  11.9920  12.4581  12.4581  12.9742  12.9742
    13.3776  13.3776  14.3602  14.3602  15.8941  15.8941  16.2810  16.2810
    16.8694  16.8694  18.3038  18.3038  20.2377  20.2377

     occupation numbers 
     1.0000   1.0000   1.0000   1.0000   1.0000   1.0000   1.0000   1.0000
     1.0000   1.0000   1.0000   1.0000   1.0000   1.0000   1.0000   1.0000
     1.0000   1.0000   1.0000   1.0000   1.0000   1.0000   1.0000   1.0000
     1.0000   1.0000   1.0000   1.0000   1.0000   1.0000   1.0000   1.0000
     1.0000   1.0000   1.0000   1.0000   1.0000   1.0000   1.0000   1.0000
     1.0000   1.0000   1.0000   1.0000   1.0000   1.0000   1.0000   1.0000
     1.0000   1.0000   1.0000   1.0000   1.0000   1.0000   1.0000   1.0000
     1.0000   1.0000  -0.0000  -0.0000  -0.0000  -0.0000  -0.0000  -0.0000
    -0.0000  -0.0000  -0.0000  -0.0000  -0.0000  -0.0000

          k = 0.1429 0.1429-0.7124 (  5368 PWs)   bands (ev):

   -79.3872 -79.3872 -79.3872 -79.3872 -46.2387 -46.2387 -46.2376 -46.2376
   -32.8242 -32.8242 -32.8070 -32.8070 -32.6471 -32.6471 -32.6359 -32.6359
    -5.8034  -5.8034  -5.7044  -5.7044  -5.4430  -5.4430  -5.2927  -5.2927
     5.6362   5.6362   5.8818   5.8818   6.1071   6.1071   6.5698   6.5698
     6.8039   6.8039   8.0749   8.0749   8.2455   8.2455   8.3004   8.3004
     8.7300   8.7300   9.1331   9.1331   9.4526   9.4526   9.9861   9.9861
    11.8751  11.8751  11.9000  11.9000  12.4639  12.4639  13.0282  13.0282
    13.7980  13.7980  14.4776  14.4776  15.2190  15.2190  16.1104  16.1104
    16.7711  16.7711  17.6897  17.6897  22.9122  22.9139

     occupation numbers 
     1.0000   1.0000   1.0000   1.0000   1.0000   1.0000   1.0000   1.0000
     1.0000   1.0000   1.0000   1.0000   1.0000   1.0000   1.0000   1.0000
     1.0000   1.0000   1.0000   1.0000   1.0000   1.0000   1.0000   1.0000
     1.0000   1.0000   1.0000   1.0000   1.0000   1.0000   1.0000   1.0000
     1.0000   1.0000   1.0000   1.0000   1.0000   1.0000   1.0000   1.0000
     1.0000   1.0000   1.0000   1.0000   1.0000   1.0000   1.0000   1.0000
     1.0000   1.0000   1.0000   1.0000   1.0000   1.0000   1.0000   1.0000
     0.9451   0.9451  -0.0000  -0.0000  -0.0000  -0.0000  -0.0000  -0.0000
    -0.0000  -0.0000  -0.0000  -0.0000  -0.0000  -0.0000

          k = 0.1429 0.2857 0.0000 (  5373 PWs)   bands (ev):

   -79.3899 -79.3899 -79.3891 -79.3891 -46.2300 -46.2300 -46.2240 -46.2240
   -32.7656 -32.7656 -32.7581 -32.7581 -32.6284 -32.6284 -32.6212 -32.6212
    -6.7380  -6.7380  -5.9528  -5.9528  -5.2843  -5.2843  -4.9896  -4.9896
     4.5667   4.5667   5.5533   5.5533   6.0842   6.0842   6.2386   6.2386
     6.8741   6.8741   7.4113   7.4113   8.5798   8.5798   8.7093   8.7093
     9.5113   9.5113   9.6367   9.6367  10.2866  10.2866  11.1762  11.1762
    11.4799  11.4799  11.8295  11.8295  12.1540  12.1540  12.4662  12.4662
    12.9477  12.9477  14.4639  14.4639  15.7380  15.7380  17.3390  17.3390
    17.7769  17.7769  18.5224  18.5224  19.5187  19.5187

     occupation numbers 
     1.0000   1.0000   1.0000   1.0000   1.0000   1.0000   1.0000   1.0000
     1.0000   1.0000   1.0000   1.0000   1.0000   1.0000   1.0000   1.0000
     1.0000   1.0000   1.0000   1.0000   1.0000   1.0000   1.0000   1.0000
     1.0000   1.0000   1.0000   1.0000   1.0000   1.0000   1.0000   1.0000
     1.0000   1.0000   1.0000   1.0000   1.0000   1.0000   1.0000   1.0000
     1.0000   1.0000   1.0000   1.0000   1.0000   1.0000   1.0000   1.0000
     1.0000   1.0000   1.0000   1.0000   1.0000   1.0000   1.0000   1.0000
     1.0000   1.0000  -0.0000  -0.0000  -0.0000  -0.0000  -0.0000  -0.0000
    -0.0000  -0.0000  -0.0000  -0.0000  -0.0000  -0.0000

          k = 0.1429 0.2857 0.3562 (  5377 PWs)   bands (ev):

   -79.3886 -79.3886 -79.3881 -79.3881 -46.2348 -46.2348 -46.2304 -46.2304
   -32.7941 -32.7941 -32.7762 -32.7762 -32.6452 -32.6452 -32.6289 -32.6289
    -6.2903  -6.2903  -5.6315  -5.6315  -5.4899  -5.4899  -5.2255  -5.2255
     5.1514   5.1514   5.9137   5.9137   6.2502   6.2502   6.5886   6.5886
     6.7498   6.7498   7.5716   7.5716   7.7235   7.7235   8.2500   8.2500
     9.1785   9.1785   9.3284   9.3284   9.9269   9.9269  10.9206  10.9206
    11.4487  11.4487  12.1344  12.1344  12.5449  12.5449  12.9272  12.9272
    13.4769  13.4769  14.1611  14.1611  15.8034  15.8034  16.3239  16.3239
    16.9240  16.9240  18.2772  18.2772  20.8329  20.8329

     occupation numbers 
     1.0000   1.0000   1.0000   1.0000   1.0000   1.0000   1.0000   1.0000
     1.0000   1.0000   1.0000   1.0000   1.0000   1.0000   1.0000   1.0000
     1.0000   1.0000   1.0000   1.0000   1.0000   1.0000   1.0000   1.0000
     1.0000   1.0000   1.0000   1.0000   1.0000   1.0000   1.0000   1.0000
     1.0000   1.0000   1.0000   1.0000   1.0000   1.0000   1.0000   1.0000
     1.0000   1.0000   1.0000   1.0000   1.0000   1.0000   1.0000   1.0000
     1.0000   1.0000   1.0000   1.0000   1.0000   1.0000   1.0000   1.0000
     1.0000   1.0000  -0.0000  -0.0000  -0.0000  -0.0000  -0.0000  -0.0000
    -0.0000  -0.0000  -0.0000  -0.0000  -0.0000  -0.0000

          k = 0.1429 0.2857-0.7124 (  5360 PWs)   bands (ev):

   -79.3872 -79.3872 -79.3872 -79.3872 -46.2389 -46.2389 -46.2374 -46.2374
   -32.8275 -32.8275 -32.8039 -32.8039 -32.6492 -32.6492 -32.6339 -32.6339
    -5.8277  -5.8277  -5.7180  -5.7180  -5.4320  -5.4320  -5.2509  -5.2509
     5.5199   5.5199   5.8701   5.8701   6.0627   6.0627   6.2428   6.2428
     7.0030   7.0030   8.0026   8.0026   8.3113   8.3113   8.6901   8.6901
     8.9006   8.9006   9.3479   9.3479   9.5395   9.5395  10.0924  10.0924
    11.6999  11.6999  11.8840  11.8840  12.1100  12.1100  12.6513  12.6513
    13.8211  13.8211  14.5173  14.5173  15.0061  15.0061  15.7429  15.7429
    17.3237  17.3237  18.1121  18.1121  22.9570  22.9570

     occupation numbers 
     1.0000   1.0000   1.0000   1.0000   1.0000   1.0000   1.0000   1.0000
     1.0000   1.0000   1.0000   1.0000   1.0000   1.0000   1.0000   1.0000
     1.0000   1.0000   1.0000   1.0000   1.0000   1.0000   1.0000   1.0000
     1.0000   1.0000   1.0000   1.0000   1.0000   1.0000   1.0000   1.0000
     1.0000   1.0000   1.0000   1.0000   1.0000   1.0000   1.0000   1.0000
     1.0000   1.0000   1.0000   1.0000   1.0000   1.0000   1.0000   1.0000
     1.0000   1.0000   1.0000   1.0000   1.0000   1.0000   1.0000   1.0000
     0.7563   0.7563  -0.0000  -0.0000  -0.0000  -0.0000  -0.0000  -0.0000
    -0.0000  -0.0000  -0.0000  -0.0000  -0.0000  -0.0000

          k = 0.1429 0.4286 0.0000 (  5380 PWs)   bands (ev):

   -79.3896 -79.3896 -79.3894 -79.3894 -46.2281 -46.2281 -46.2259 -46.2259
   -32.7625 -32.7625 -32.7598 -32.7598 -32.6271 -32.6271 -32.6244 -32.6244
    -6.4595  -6.4595  -6.1589  -6.1589  -5.2727  -5.2727  -5.1401  -5.1401
     5.0132   5.0132   5.5312   5.5312   6.1421   6.1421   6.2175   6.2175
     7.3242   7.3242   7.5584   7.5584   8.0829   8.0829   8.5904   8.5904
     8.7978   8.7978   9.0892   9.0892  10.4586  10.4586  10.8058  10.8058
    11.8894  11.8894  12.0728  12.0728  12.2459  12.2459  12.4854  12.4854
    13.4553  13.4553  13.9910  13.9910  16.6245  16.6245  17.3374  17.3374
    17.4830  17.4830  17.7862  17.7862  20.5450  20.5450

     occupation numbers 
     1.0000   1.0000   1.0000   1.0000   1.0000   1.0000   1.0000   1.0000
     1.0000   1.0000   1.0000   1.0000   1.0000   1.0000   1.0000   1.0000
     1.0000   1.0000   1.0000   1.0000   1.0000   1.0000   1.0000   1.0000
     1.0000   1.0000   1.0000   1.0000   1.0000   1.0000   1.0000   1.0000
     1.0000   1.0000   1.0000   1.0000   1.0000   1.0000   1.0000   1.0000
     1.0000   1.0000   1.0000   1.0000   1.0000   1.0000   1.0000   1.0000
     1.0000   1.0000   1.0000   1.0000   1.0000   1.0000   1.0000   1.0000
     1.0000   1.0000  -0.0043  -0.0043  -0.0000  -0.0000  -0.0000  -0.0000
    -0.0000  -0.0000  -0.0000  -0.0000  -0.0000  -0.0000

          k = 0.1429 0.4286 0.3562 (  5377 PWs)   bands (ev):

   -79.3884 -79.3884 -79.3883 -79.3883 -46.2336 -46.2336 -46.2316 -46.2316
   -32.7954 -32.7954 -32.7745 -32.7745 -32.6447 -32.6447 -32.6301 -32.6301
    -6.0672  -6.0672  -5.8134  -5.8134  -5.4597  -5.4597  -5.3271  -5.3271
     5.4861   5.4861   5.9107   5.9107   6.3004   6.3004   6.4534   6.4534
     6.7974   6.7974   7.2104   7.2104   8.1227   8.1227   8.4421   8.4421
     8.7051   8.7051   9.0715   9.0715  10.1235  10.1235  10.4885  10.4885
    11.9038  11.9038  12.2274  12.2274  12.5576  12.5576  12.8402  12.8402
    13.5480  13.5480  13.9658  13.9658  15.8314  15.8314  16.1261  16.1261
    17.3984  17.3984  17.9493  17.9493  21.6559  21.6559

     occupation numbers 
     1.0000   1.0000   1.0000   1.0000   1.0000   1.0000   1.0000   1.0000
     1.0000   1.0000   1.0000   1.0000   1.0000   1.0000   1.0000   1.0000
     1.0000   1.0000   1.0000   1.0000   1.0000   1.0000   1.0000   1.0000
     1.0000   1.0000   1.0000   1.0000   1.0000   1.0000   1.0000   1.0000
     1.0000   1.0000   1.0000   1.0000   1.0000   1.0000   1.0000   1.0000
     1.0000   1.0000   1.0000   1.0000   1.0000   1.0000   1.0000   1.0000
     1.0000   1.0000   1.0000   1.0000   1.0000   1.0000   1.0000   1.0000
     1.0000   1.0000  -0.0142  -0.0142  -0.0000  -0.0000  -0.0000  -0.0000
    -0.0000  -0.0000  -0.0000  -0.0000  -0.0000  -0.0000

          k = 0.1429 0.4286-0.7124 (  5350 PWs)   bands (ev):

   -79.3872 -79.3872 -79.3872 -79.3872 -46.2391 -46.2391 -46.2373 -46.2373
   -32.8296 -32.8296 -32.8021 -32.8021 -32.6505 -32.6505 -32.6326 -32.6326
    -5.8162  -5.8162  -5.7717  -5.7717  -5.3946  -5.3946  -5.2342  -5.2342
     5.4769   5.4769   5.6150   5.6150   6.1124   6.1124   6.2063   6.2063
     7.3669   7.3669   7.8367   7.8367   8.3220   8.3220   8.4551   8.4551
     9.0359   9.0359   9.3804   9.3804  10.1930  10.1930  10.6271  10.6271
    11.2121  11.2121  11.6302  11.6302  11.9162  11.9162  12.2809  12.2809
    14.0130  14.0130  14.4289  14.4289  15.0470  15.0470  15.3093  15.3093
    17.9252  17.9252  18.2482  18.2482  23.1060  23.1060

     occupation numbers 
     1.0000   1.0000   1.0000   1.0000   1.0000   1.0000   1.0000   1.0000
     1.0000   1.0000   1.0000   1.0000   1.0000   1.0000   1.0000   1.0000
     1.0000   1.0000   1.0000   1.0000   1.0000   1.0000   1.0000   1.0000
     1.0000   1.0000   1.0000   1.0000   1.0000   1.0000   1.0000   1.0000
     1.0000   1.0000   1.0000   1.0000   1.0000   1.0000   1.0000   1.0000
     1.0000   1.0000   1.0000   1.0000   1.0000   1.0000   1.0000   1.0000
     1.0000   1.0000   1.0000   1.0000   1.0000   1.0000   1.0000   1.0000
    -0.0012  -0.0012  -0.0000  -0.0000  -0.0000  -0.0000  -0.0000  -0.0000
    -0.0000  -0.0000  -0.0000  -0.0000  -0.0000  -0.0000

          k = 0.2857 0.2857 0.0000 (  5393 PWs)   bands (ev):

   -79.3898 -79.3898 -79.3893 -79.3893 -46.2291 -46.2291 -46.2249 -46.2249
   -32.7649 -32.7649 -32.7592 -32.7592 -32.6276 -32.6276 -32.6221 -32.6221
    -6.6291  -6.6291  -6.0676  -6.0676  -5.2872  -5.2872  -4.9774  -4.9774
     4.4027   4.4027   5.5386   5.5386   6.0428   6.0428   6.2146   6.2146
     7.1903   7.1903   7.4813   7.4813   8.7133   8.7133   8.8709   8.8709
     9.6324   9.6324   9.7223   9.7223   9.9552   9.9552  10.9177  10.9177
    11.1791  11.1791  11.6760  11.6760  12.1466  12.1466  12.4933  12.4933
    13.3339  13.3339  14.3366  14.3366  15.7986  15.7986  17.3679  17.3679
    17.6810  17.6810  18.0919  18.0919  20.3347  20.3347

     occupation numbers 
     1.0000   1.0000   1.0000   1.0000   1.0000   1.0000   1.0000   1.0000
     1.0000   1.0000   1.0000   1.0000   1.0000   1.0000   1.0000   1.0000
     1.0000   1.0000   1.0000   1.0000   1.0000   1.0000   1.0000   1.0000
     1.0000   1.0000   1.0000   1.0000   1.0000   1.0000   1.0000   1.0000
     1.0000   1.0000   1.0000   1.0000   1.0000   1.0000   1.0000   1.0000
     1.0000   1.0000   1.0000   1.0000   1.0000   1.0000   1.0000   1.0000
     1.0000   1.0000   1.0000   1.0000   1.0000   1.0000   1.0000   1.0000
     1.0000   1.0000  -0.0000  -0.0000  -0.0000  -0.0000  -0.0000  -0.0000
    -0.0000  -0.0000  -0.0000  -0.0000  -0.0000  -0.0000

          k = 0.2857 0.2857 0.3562 (  5369 PWs)   bands (ev):

   -79.3885 -79.3885 -79.3882 -79.3882 -46.2341 -46.2341 -46.2310 -46.2310
   -32.7935 -32.7935 -32.7772 -32.7772 -32.6438 -32.6438 -32.6304 -32.6304
    -6.1996  -6.1996  -5.7343  -5.7343  -5.4744  -5.4744  -5.2228  -5.2228
     5.0180   5.0180   5.9099   5.9099   6.1320   6.1320   6.4446   6.4446
     6.8330   6.8330   7.8302   7.8302   7.9592   7.9592   8.3229   8.3229
     9.0903   9.0903   9.4848   9.4848   9.8728   9.8728  10.6325  10.6325
    11.6892  11.6892  11.9920  11.9920  12.5546  12.5546  12.8991  12.8991
    13.4925  13.4925  13.9977  13.9977  15.8242  15.8242  16.5248  16.5248
    16.9196  16.9196  18.0183  18.0183  21.3472  21.3472

     occupation numbers 
     1.0000   1.0000   1.0000   1.0000   1.0000   1.0000   1.0000   1.0000
     1.0000   1.0000   1.0000   1.0000   1.0000   1.0000   1.0000   1.0000
     1.0000   1.0000   1.0000   1.0000   1.0000   1.0000   1.0000   1.0000
     1.0000   1.0000   1.0000   1.0000   1.0000   1.0000   1.0000   1.0000
     1.0000   1.0000   1.0000   1.0000   1.0000   1.0000   1.0000   1.0000
     1.0000   1.0000   1.0000   1.0000   1.0000   1.0000   1.0000   1.0000
     1.0000   1.0000   1.0000   1.0000   1.0000   1.0000   1.0000   1.0000
     1.0000   1.0000  -0.0030  -0.0030  -0.0000  -0.0000  -0.0000  -0.0000
    -0.0000  -0.0000  -0.0000  -0.0000  -0.0000  -0.0000

          k = 0.2857 0.2857-0.7124 (  5354 PWs)   bands (ev):

   -79.3872 -79.3872 -79.3872 -79.3872 -46.2389 -46.2389 -46.2375 -46.2375
   -32.8265 -32.8265 -32.8050 -32.8050 -32.6487 -32.6487 -32.6347 -32.6347
    -5.8173  -5.8173  -5.6506  -5.6506  -5.4872  -5.4872  -5.2634  -5.2634
     5.4838   5.4838   5.9079   5.9079   6.1674   6.1674   6.2987   6.2987
     6.4992   6.4992   7.9779   7.9779   8.3245   8.3245   8.3580   8.3580
     9.1922   9.1922   9.6230   9.6230   9.7158   9.7158  10.5289  10.5289
    11.5066  11.5066  11.8995  11.8995  12.0928  12.0928  12.8439  12.8439
    13.4324  13.4324  14.4412  14.4412  15.0089  15.0089  16.0929  16.0929
    17.0099  17.0099  18.1453  18.1453  22.9830  22.9830

     occupation numbers 
     1.0000   1.0000   1.0000   1.0000   1.0000   1.0000   1.0000   1.0000
     1.0000   1.0000   1.0000   1.0000   1.0000   1.0000   1.0000   1.0000
     1.0000   1.0000   1.0000   1.0000   1.0000   1.0000   1.0000   1.0000
     1.0000   1.0000   1.0000   1.0000   1.0000   1.0000   1.0000   1.0000
     1.0000   1.0000   1.0000   1.0000   1.0000   1.0000   1.0000   1.0000
     1.0000   1.0000   1.0000   1.0000   1.0000   1.0000   1.0000   1.0000
     1.0000   1.0000   1.0000   1.0000   1.0000   1.0000   1.0000   1.0000
     1.0000   1.0000  -0.0000  -0.0000  -0.0000  -0.0000  -0.0000  -0.0000
    -0.0000  -0.0000  -0.0000  -0.0000  -0.0000  -0.0000

          k = 0.2857 0.4286 0.0000 (  5394 PWs)   bands (ev):

   -79.3896 -79.3896 -79.3894 -79.3894 -46.2278 -46.2278 -46.2263 -46.2263
   -32.7633 -32.7633 -32.7611 -32.7611 -32.6259 -32.6259 -32.6238 -32.6238
    -6.4618  -6.4618  -6.2597  -6.2597  -5.1841  -5.1841  -5.0546  -5.0546
     4.5672   4.5672   5.0112   5.0112   6.0560   6.0560   6.1242   6.1242
     7.7254   7.7254   8.0912   8.0912   8.6203   8.6203   8.9801   8.9801
     9.3157   9.3157   9.4241   9.4241   9.9623   9.9623  10.4606  10.4606
    11.4809  11.4809  11.7941  11.7941  12.0069  12.0069  12.2442  12.2442
    13.7284  13.7284  14.0802  14.0802  16.2726  16.2726  17.0000  17.0000
    17.6035  17.6035  17.8581  17.8581  21.2112  21.2113

     occupation numbers 
     1.0000   1.0000   1.0000   1.0000   1.0000   1.0000   1.0000   1.0000
     1.0000   1.0000   1.0000   1.0000   1.0000   1.0000   1.0000   1.0000
     1.0000   1.0000   1.0000   1.0000   1.0000   1.0000   1.0000   1.0000
     1.0000   1.0000   1.0000   1.0000   1.0000   1.0000   1.0000   1.0000
     1.0000   1.0000   1.0000   1.0000   1.0000   1.0000   1.0000   1.0000
     1.0000   1.0000   1.0000   1.0000   1.0000   1.0000   1.0000   1.0000
     1.0000   1.0000   1.0000   1.0000   1.0000   1.0000   1.0000   1.0000
     1.0193   1.0193  -0.0000  -0.0000  -0.0000  -0.0000  -0.0000  -0.0000
    -0.0000  -0.0000  -0.0000  -0.0000  -0.0000  -0.0000

          k = 0.2857 0.4286 0.3562 (  5369 PWs)   bands (ev):

   -79.3884 -79.3884 -79.3883 -79.3883 -46.2333 -46.2333 -46.2319 -46.2319
   -32.7929 -32.7929 -32.7780 -32.7780 -32.6423 -32.6423 -32.6319 -32.6319
    -6.0645  -6.0645  -5.9004  -5.9004  -5.3850  -5.3850  -5.2766  -5.2766
     5.1358   5.1358   5.4842   5.4842   6.1384   6.1384   6.2599   6.2599
     7.2353   7.2353   7.6230   7.6230   8.4352   8.4352   8.7652   8.7652
     9.0118   9.0118   9.2550   9.2550   9.8284   9.8284  10.1946  10.1946
    11.9925  11.9925  12.1512  12.1512  12.5085  12.5085  12.7057  12.7057
    13.4994  13.4994  13.7948  13.7948  16.0956  16.0956  16.4496  16.4496
    17.1655  17.1655  17.6155  17.6155  22.0070  22.0070

     occupation numbers 
     1.0000   1.0000   1.0000   1.0000   1.0000   1.0000   1.0000   1.0000
     1.0000   1.0000   1.0000   1.0000   1.0000   1.0000   1.0000   1.0000
     1.0000   1.0000   1.0000   1.0000   1.0000   1.0000   1.0000   1.0000
     1.0000   1.0000   1.0000   1.0000   1.0000   1.0000   1.0000   1.0000
     1.0000   1.0000   1.0000   1.0000   1.0000   1.0000   1.0000   1.0000
     1.0000   1.0000   1.0000   1.0000   1.0000   1.0000   1.0000   1.0000
     1.0000   1.0000   1.0000   1.0000   1.0000   1.0000   1.0000   1.0000
     1.0000   1.0000   0.9626   0.9626  -0.0000  -0.0000  -0.0000  -0.0000
    -0.0000  -0.0000  -0.0000  -0.0000  -0.0000  -0.0000

          k = 0.2857 0.4286-0.7124 (  5368 PWs)   bands (ev):

   -79.3872 -79.3872 -79.3872 -79.3872 -46.2388 -46.2388 -46.2376 -46.2376
   -32.8256 -32.8256 -32.8059 -32.8059 -32.6482 -32.6482 -32.6354 -32.6354
    -5.7664  -5.7664  -5.6845  -5.6845  -5.4578  -5.4578  -5.3016  -5.3016
     5.5624   5.5624   5.7939   5.7939   5.9992   5.9992   6.2080   6.2080
     6.8979   6.8979   7.4974   7.4974   8.1990   8.1990   8.3338   8.3338
     9.4101   9.4101   9.6134   9.6134  10.2998  10.2998  10.7356  10.7356
    11.5406  11.5406  11.8975  11.8975  12.0232  12.0232  12.4652  12.4652
    13.6488  13.6488  14.1738  14.1738  15.2854  15.2854  15.7454  15.7454
    17.4127  17.4127  17.9068  17.9068  23.1057  23.1058

     occupation numbers 
     1.0000   1.0000   1.0000   1.0000   1.0000   1.0000   1.0000   1.0000
     1.0000   1.0000   1.0000   1.0000   1.0000   1.0000   1.0000   1.0000
     1.0000   1.0000   1.0000   1.0000   1.0000   1.0000   1.0000   1.0000
     1.0000   1.0000   1.0000   1.0000   1.0000   1.0000   1.0000   1.0000
     1.0000   1.0000   1.0000   1.0000   1.0000   1.0000   1.0000   1.0000
     1.0000   1.0000   1.0000   1.0000   1.0000   1.0000   1.0000   1.0000
     1.0000   1.0000   1.0000   1.0000   1.0000   1.0000   1.0000   1.0000
     1.0002   1.0002  -0.0000  -0.0000  -0.0000  -0.0000  -0.0000  -0.0000
    -0.0000  -0.0000  -0.0000  -0.0000  -0.0000  -0.0000

          k = 0.4286 0.4286 0.0000 (  5408 PWs)   bands (ev):

   -79.3895 -79.3895 -79.3895 -79.3895 -46.2273 -46.2273 -46.2268 -46.2268
   -32.7635 -32.7635 -32.7626 -32.7626 -32.6245 -32.6245 -32.6237 -32.6237
    -6.4336  -6.4336  -6.3630  -6.3630  -5.0797  -5.0797  -5.0263  -5.0263
     4.4017   4.4017   4.5658   4.5658   6.0154   6.0154   6.0423   6.0423
     8.2264   8.2264   8.6549   8.6549   8.7638   8.7638   9.1914   9.1914
     9.4582   9.4582   9.6021   9.6021   9.9730   9.9730  10.4247  10.4247
    11.1402  11.1402  11.4220  11.4220  11.7729  11.7729  11.9212  11.9212
    13.9596  13.9596  14.0806  14.0806  16.1834  16.1834  16.4678  16.4678
    17.8288  17.8288  17.9309  17.9309  21.9192  21.9192

     occupation numbers 
     1.0000   1.0000   1.0000   1.0000   1.0000   1.0000   1.0000   1.0000
     1.0000   1.0000   1.0000   1.0000   1.0000   1.0000   1.0000   1.0000
     1.0000   1.0000   1.0000   1.0000   1.0000   1.0000   1.0000   1.0000
     1.0000   1.0000   1.0000   1.0000   1.0000   1.0000   1.0000   1.0000
     1.0000   1.0000   1.0000   1.0000   1.0000   1.0000   1.0000   1.0000
     1.0000   1.0000   1.0000   1.0000   1.0000   1.0000   1.0000   1.0000
     1.0000   1.0000   1.0000   1.0000   1.0000   1.0000   1.0000   1.0000
    -0.0179  -0.0179  -0.0000  -0.0000  -0.0000  -0.0000  -0.0000  -0.0000
    -0.0000  -0.0000  -0.0000  -0.0000  -0.0000  -0.0000

          k = 0.4286 0.4286 0.3562 (  5363 PWs)   bands (ev):

   -79.3884 -79.3884 -79.3883 -79.3883 -46.2329 -46.2329 -46.2323 -46.2323
   -32.7894 -32.7894 -32.7822 -32.7822 -32.6393 -32.6393 -32.6344 -32.6344
    -6.0392  -6.0392  -5.9825  -5.9825  -5.3084  -5.3084  -5.2632  -5.2632
     5.0028   5.0028   5.1327   5.1327   6.0727   6.0727   6.1170   6.1170
     7.6434   7.6434   7.8328   7.8328   8.6897   8.6897   8.9738   8.9738
     9.1645   9.1645   9.3197   9.3197   9.7025   9.7025  10.0031  10.0031
    11.8947  11.8947  12.0553  12.0553  12.5694  12.5694  12.7124  12.7124
    13.4491  13.4491  13.5988  13.5988  16.4188  16.4188  16.6304  16.6304
    17.0393  17.0393  17.2541  17.2541  22.4835  22.4838

     occupation numbers 
     1.0000   1.0000   1.0000   1.0000   1.0000   1.0000   1.0000   1.0000
     1.0000   1.0000   1.0000   1.0000   1.0000   1.0000   1.0000   1.0000
     1.0000   1.0000   1.0000   1.0000   1.0000   1.0000   1.0000   1.0000
     1.0000   1.0000   1.0000   1.0000   1.0000   1.0000   1.0000   1.0000
     1.0000   1.0000   1.0000   1.0000   1.0000   1.0000   1.0000   1.0000
     1.0000   1.0000   1.0000   1.0000   1.0000   1.0000   1.0000   1.0000
     1.0000   1.0000   1.0000   1.0000   1.0000   1.0000   1.0000   1.0000
     1.0000   1.0000   1.0000   1.0000  -0.0000  -0.0000  -0.0000  -0.0000
    -0.0000  -0.0000  -0.0000  -0.0000  -0.0000  -0.0000

          k = 0.4286 0.4286-0.7124 (  5370 PWs)   bands (ev):

   -79.3872 -79.3872 -79.3872 -79.3872 -46.2385 -46.2385 -46.2379 -46.2379
   -32.8205 -32.8205 -32.8109 -32.8109 -32.6451 -32.6451 -32.6389 -32.6389
    -5.6875  -5.6875  -5.6116  -5.6116  -5.5104  -5.5104  -5.3956  -5.3956
     5.6776   5.6776   5.8038   5.8038   6.0422   6.0422   6.3279   6.3279
     6.5998   6.5998   6.9907   6.9907   8.2228   8.2228   8.3012   8.3012
     9.5946   9.5946   9.6680   9.6680  10.5526  10.5526  10.7161  10.7161
    11.8767  11.8767  11.9350  11.9350  12.2929  12.2929  12.6924  12.6924
    13.3749  13.3749  13.7716  13.7716  15.7330  15.7330  16.0753  16.0753
    17.0328  17.0328  17.3886  17.3886  23.0544  23.0551

     occupation numbers 
     1.0000   1.0000   1.0000   1.0000   1.0000   1.0000   1.0000   1.0000
     1.0000   1.0000   1.0000   1.0000   1.0000   1.0000   1.0000   1.0000
     1.0000   1.0000   1.0000   1.0000   1.0000   1.0000   1.0000   1.0000
     1.0000   1.0000   1.0000   1.0000   1.0000   1.0000   1.0000   1.0000
     1.0000   1.0000   1.0000   1.0000   1.0000   1.0000   1.0000   1.0000
     1.0000   1.0000   1.0000   1.0000   1.0000   1.0000   1.0000   1.0000
     1.0000   1.0000   1.0000   1.0000   1.0000   1.0000   1.0000   1.0000
     1.0000   1.0000   1.0294   1.0294  -0.0000  -0.0000  -0.0000  -0.0000
    -0.0000  -0.0000  -0.0000  -0.0000  -0.0000  -0.0000

     the Fermi energy is    13.8429 ev

!    total energy              =    -553.08116353 Ry
     estimated scf accuracy    <          1.8E-11 Ry
     smearing contrib. (-TS)   =       0.00003728 Ry
     internal energy E=F+TS    =    -553.08120080 Ry

     The total energy is F=E-TS. E is the sum of the following terms:
     one-electron contribution =    -190.90653925 Ry
     hartree contribution      =     122.72561634 Ry
     xc contribution           =     -69.91426737 Ry
     ewald contribution        =    -414.98601052 Ry

     convergence has been achieved in  10 iterations

     Forces acting on atoms (cartesian axes, Ry/au):

     atom    1 type  2   force =     0.00000000    0.00000000   -0.00000000
     atom    2 type  2   force =     0.00000000    0.00000000    0.00000000
     atom    3 type  1   force =     0.00084944   -0.00084944   -0.00000000
     atom    4 type  1   force =    -0.00084944   -0.00084944    0.00000000
     atom    5 type  1   force =     0.00084944    0.00084944    0.00000000
     atom    6 type  1   force =    -0.00084944    0.00084944   -0.00000000
     The non-local contrib.  to forces
     atom    1 type  2   force =     0.00000000    0.00000000    0.00000000
     atom    2 type  2   force =     0.00000000    0.00000000    0.00000000
     atom    3 type  1   force =    -0.05361854    0.05361854   -0.00000000
     atom    4 type  1   force =     0.05361854    0.05361854    0.00000000
     atom    5 type  1   force =    -0.05361854   -0.05361854    0.00000000
     atom    6 type  1   force =     0.05361854   -0.05361854   -0.00000000
     The ionic contribution  to forces
     atom    1 type  2   force =    -0.00000000   -0.00000000    0.00000000
     atom    2 type  2   force =     0.00000000    0.00000000   -0.00000000
     atom    3 type  1   force =     1.42937233   -1.42937233    0.00000000
     atom    4 type  1   force =    -1.42937233   -1.42937233   -0.00000000
     atom    5 type  1   force =     1.42937233    1.42937233   -0.00000000
     atom    6 type  1   force =    -1.42937233    1.42937233    0.00000000
     The local contribution  to forces
     atom    1 type  2   force =     0.00000000    0.00000000    0.00000000
     atom    2 type  2   force =     0.00000000    0.00000000    0.00000000
     atom    3 type  1   force =    -1.37490397    1.37490397    0.00000000
     atom    4 type  1   force =     1.37490397    1.37490397    0.00000000
     atom    5 type  1   force =    -1.37490397   -1.37490397    0.00000000
     atom    6 type  1   force =     1.37490397   -1.37490397    0.00000000
     The core correction contribution to forces
     atom    1 type  2   force =     0.00000000    0.00000000    0.00000000
     atom    2 type  2   force =     0.00000000    0.00000000    0.00000000
     atom    3 type  1   force =     0.00000000    0.00000000    0.00000000
     atom    4 type  1   force =     0.00000000    0.00000000    0.00000000
     atom    5 type  1   force =     0.00000000    0.00000000    0.00000000
     atom    6 type  1   force =     0.00000000    0.00000000    0.00000000
     The Hubbard contrib.    to forces
     atom    1 type  2   force =     0.00000000    0.00000000    0.00000000
     atom    2 type  2   force =     0.00000000    0.00000000    0.00000000
     atom    3 type  1   force =     0.00000000    0.00000000    0.00000000
     atom    4 type  1   force =     0.00000000    0.00000000    0.00000000
     atom    5 type  1   force =     0.00000000    0.00000000    0.00000000
     atom    6 type  1   force =     0.00000000    0.00000000    0.00000000
     The SCF correction term to forces
     atom    1 type  2   force =     0.00000000    0.00000000    0.00000000
     atom    2 type  2   force =     0.00000000   -0.00000000   -0.00000000
     atom    3 type  1   force =    -0.00000039    0.00000039    0.00000000
     atom    4 type  1   force =     0.00000039    0.00000039   -0.00000000
     atom    5 type  1   force =    -0.00000039   -0.00000039   -0.00000000
     atom    6 type  1   force =     0.00000039   -0.00000039    0.00000000

     Total force =     0.002403     Total SCF correction =     0.000001


     Computing stress (Cartesian axis) and pressure

          total   stress  (Ry/bohr**3)                   (kbar)     P=      -21.33
  -0.00012165   0.00000000   0.00000000          -17.89        0.00        0.00
   0.00000000  -0.00012165   0.00000000            0.00      -17.89        0.00
   0.00000000   0.00000000  -0.00019170            0.00        0.00      -28.20

     kinetic stress (kbar)  48450.23      0.00      0.00
                                0.00  48450.23      0.00
                                0.00      0.00  47532.55

     local   stress (kbar) -12677.37      0.00      0.00
                                0.00 -12677.37      0.00
                                0.00      0.00 -44415.28

     nonloc. stress (kbar)  14525.14      0.00      0.00
                                0.00  14525.14      0.00
                                0.00      0.00  14743.96

     hartree stress (kbar)   9608.49      0.00     -0.00
                                0.00   9608.49     -0.00
                               -0.00     -0.00  21381.38

     exc-cor stress (kbar)  -7288.18      0.00     -0.00
                                0.00  -7288.18      0.00
                               -0.00      0.00  -7263.37

     corecor stress (kbar)      0.00      0.00      0.00
                                0.00      0.00      0.00
                                0.00      0.00      0.00

     ewald   stress (kbar) -52636.21     -0.00     -0.00
                               -0.00 -52636.21     -0.00
                               -0.00     -0.00 -32007.45

     hubbard stress (kbar)      0.00      0.00      0.00
                                0.00      0.00      0.00
                                0.00      0.00      0.00

     DFT-D   stress (kbar)      0.00      0.00      0.00
                                0.00      0.00      0.00
                                0.00      0.00      0.00

     XDM     stress (kbar)      0.00      0.00      0.00
                                0.00      0.00      0.00
                                0.00      0.00      0.00

     dft-nl  stress (kbar)      0.00      0.00      0.00
                                0.00      0.00      0.00
                                0.00      0.00      0.00

     TS-vdW  stress (kbar)      0.00      0.00      0.00
                                0.00      0.00      0.00
                                0.00      0.00      0.00


                                0.00      0.00      0.00
                                0.00      0.00      0.00


                                0.00      0.00      0.00


     Writing all to output data dir tmp/espresso.save/
 
     init_run     :      3.07s CPU      1.61s WALL (       1 calls)
     electrons    :    102.32s CPU     52.44s WALL (       1 calls)
     forces       :      5.15s CPU      2.64s WALL (       1 calls)
     stress       :      7.37s CPU      3.72s WALL (       1 calls)

     Called by init_run:
     wfcinit      :      3.01s CPU      1.55s WALL (       1 calls)
     wfcinit:atom :      0.01s CPU      0.01s WALL (      30 calls)
     wfcinit:wfcr :      2.93s CPU      1.50s WALL (      30 calls)
     potinit      :      0.02s CPU      0.01s WALL (       1 calls)
     hinit0       :      0.04s CPU      0.03s WALL (       1 calls)

     Called by electrons:
     c_bands      :     93.69s CPU     47.99s WALL (      10 calls)
     sum_band     :      8.50s CPU      4.37s WALL (      10 calls)
     v_of_rho     :      0.05s CPU      0.03s WALL (      11 calls)
     v_h          :      0.01s CPU      0.00s WALL (      11 calls)
     v_xc         :      0.04s CPU      0.02s WALL (      11 calls)
     mix_rho      :      0.04s CPU      0.02s WALL (      10 calls)

     Called by c_bands:
     init_us_2    :      0.27s CPU      0.14s WALL (     690 calls)
     init_us_2:cp :      0.26s CPU      0.14s WALL (     690 calls)
     cegterg      :     86.69s CPU     44.42s WALL (     300 calls)

     Called by sum_band:
     sum_band:wei :      0.07s CPU      0.04s WALL (      10 calls)
     sum_band:loo :      8.40s CPU      4.32s WALL (      10 calls)
     sum_band:buf :      0.05s CPU      0.03s WALL (     300 calls)
     sum_band:ini :      0.09s CPU      0.04s WALL (     300 calls)

     Called by *egterg:
     cdiaghg      :     13.03s CPU      6.63s WALL (    1052 calls)
     cegterg:over :      5.43s CPU      2.76s WALL (     752 calls)
     cegterg:upda :      4.20s CPU      2.14s WALL (     752 calls)
     cegterg:last :      7.40s CPU      3.76s WALL (     600 calls)
     cdiaghg:chol :      0.61s CPU      0.31s WALL (    1052 calls)
     cdiaghg:inve :      0.09s CPU      0.05s WALL (    1052 calls)
     cdiaghg:para :      1.35s CPU      0.69s WALL (    2104 calls)
     h_psi        :     57.25s CPU     29.46s WALL (    1082 calls)
     g_psi        :      0.08s CPU      0.04s WALL (     752 calls)

     Called by h_psi:
     h_psi:calbec :      6.91s CPU      3.62s WALL (    1082 calls)
     vloc_psi     :     40.47s CPU     20.81s WALL (    1082 calls)
     add_vuspsi   :      9.75s CPU      4.97s WALL (    1082 calls)

     General routines
     calbec       :      8.66s CPU      4.53s WALL (    1232 calls)
     fft          :      0.07s CPU      0.04s WALL (     150 calls)
     ffts         :      0.01s CPU      0.01s WALL (      40 calls)
     fftw         :     45.78s CPU     23.54s WALL (  257576 calls)
 
     Parallel routines
 
     PWSCF        :   2m 1.48s CPU   1m 3.95s WALL

 
   This run was terminated on:  10: 1: 9  10Apr2022            

=------------------------------------------------------------------------------=
   JOB DONE.
=------------------------------------------------------------------------------=
