
     Program PWSCF v.7.0 starts on 10Apr2022 at  9:39:16 

     This program is part of the open-source Quantum ESPRESSO suite
     for quantum simulation of materials; please cite
         "P. Giannozzi et al., J. Phys.:Condens. Matter 21 395502 (2009);
         "P. Giannozzi et al., J. Phys.:Condens. Matter 29 465901 (2017);
         "P. Giannozzi et al., J. Chem. Phys. 152 154105 (2020);
          URL http://www.quantum-espresso.org", 
     in publications or presentations arising from this work. More details at
     http://www.quantum-espresso.org/quote

     Parallel version (MPI & OpenMP), running on      64 processor cores
     Number of MPI processes:                32
     Threads/MPI process:                     2

     MPI processes distributed on     1 nodes
     R & G space division:  proc/nbgrp/npool/nimage =      32
     231508 MiB available memory on the printing compute node when the environment starts
 
     Reading input from kpoints_991.pwi
Warning: card &CELL ignored
Warning: card / ignored

     Current dimensions of program PWSCF are:
     Max number of different atomic species (ntypx) = 10
     Max number of k-points (npk) =  40000
     Max angular momentum in pseudopotentials (lmaxx) =  4

     Subspace diagonalization in iterative solution of the eigenvalue problem:
     one sub-group per band group will be used
     scalapack distributed-memory algorithm (size of sub-group:  5*  5 procs)

 
     Parallelization info
     --------------------
     sticks:   dense  smooth     PW     G-vecs:    dense   smooth      PW
     Min          58      58     16                 1342     1342     194
     Max          59      59     17                 1345     1345     196
     Sum        1885    1885    517                42999    42999    6247
 
     Using Slab Decomposition
 

     Title: 
     IrO2 Unit Cell                                                             


     bravais-lattice index     =            6
     lattice parameter (alat)  =       8.5888  a.u.
     unit-cell volume          =     444.6868 (a.u.)^3
     number of atoms/cell      =            6
     number of atomic types    =            2
     number of electrons       =        58.00
     number of Kohn-Sham states=           70
     kinetic-energy cutoff     =      80.0000  Ry
     charge density cutoff     =     320.0000  Ry
     scf convergence threshold =      1.0E-09
     mixing beta               =       0.7000
     number of iterations used =            8  plain     mixing
     Exchange-correlation= PBE
                           (   1   4   3   4   0   0   0)
     Non magnetic calculation with spin-orbit


     celldm(1)=   8.588800  celldm(2)=   0.000000  celldm(3)=   0.701870
     celldm(4)=   0.000000  celldm(5)=   0.000000  celldm(6)=   0.000000

     crystal axes: (cart. coord. in units of alat)
               a(1) = (   1.000000   0.000000   0.000000 )  
               a(2) = (   0.000000   1.000000   0.000000 )  
               a(3) = (   0.000000   0.000000   0.701870 )  

     reciprocal axes: (cart. coord. in units 2 pi/alat)
               b(1) = (  1.000000  0.000000  0.000000 )  
               b(2) = (  0.000000  1.000000  0.000000 )  
               b(3) = (  0.000000  0.000000  1.424765 )  


     PseudoPot. # 1 for O  read from file:
     ../../XX_PSEUDO/O_ONCV_PBE_fr.upf
     MD5 check sum: 59c925217d3b58c6d762355590b68b09
     Pseudo is Norm-conserving, Zval =  6.0
     Generated using ONCVPSP code by D. R. Hamann
     Using radial grid of  936 points,  6 beta functions with: 
                l(1) =   0
                l(2) =   0
                l(3) =   1
                l(4) =   1
                l(5) =   1
                l(6) =   1

     PseudoPot. # 2 for Ir read from file:
     ../../XX_PSEUDO/Ir_ONCV_PBE_fr.upf
     MD5 check sum: 924e909c4146afa09f62ee3401806954
     Pseudo is Norm-conserving, Zval = 17.0
     Generated using ONCVPSP code by D. R. Hamann
     Using radial grid of 1310 points, 14 beta functions with: 
                l(1) =   0
                l(2) =   0
                l(3) =   1
                l(4) =   1
                l(5) =   1
                l(6) =   1
                l(7) =   2
                l(8) =   2
                l(9) =   2
               l(10) =   2
               l(11) =   3
               l(12) =   3
               l(13) =   3
               l(14) =   3

     atomic species   valence    mass     pseudopotential
        O              6.00    15.99900     O ( 1.00)
        Ir            17.00   192.21700     Ir( 1.00)

     16 Sym. Ops., with inversion, found ( 8 have fractional translation)


                                    s                        frac. trans.

      isym =  1     identity                                     

 cryst.   s( 1) = (     1          0          0      )
                  (     0          1          0      )
                  (     0          0          1      )

 cart.    s( 1) = (  1.0000000  0.0000000  0.0000000 )
                  (  0.0000000  1.0000000  0.0000000 )
                  (  0.0000000  0.0000000  1.0000000 )


      isym =  2     180 deg rotation - cart. axis [0,0,1]        

 cryst.   s( 2) = (    -1          0          0      )
                  (     0         -1          0      )
                  (     0          0          1      )

 cart.    s( 2) = ( -1.0000000  0.0000000  0.0000000 )
                  (  0.0000000 -1.0000000  0.0000000 )
                  (  0.0000000  0.0000000  1.0000000 )


      isym =  3     180 deg rotation - cart. axis [0,1,0]        

 cryst.   s( 3) = (    -1          0          0      )    f =(  0.5000000 )
                  (     0          1          0      )       ( -0.5000000 )
                  (     0          0         -1      )       (  0.5000000 )

 cart.    s( 3) = ( -1.0000000  0.0000000  0.0000000 )    f =(  0.5000000 )
                  (  0.0000000  1.0000000  0.0000000 )       ( -0.5000000 )
                  (  0.0000000  0.0000000 -1.0000000 )       (  0.3509351 )


      isym =  4     180 deg rotation - cart. axis [1,0,0]        

 cryst.   s( 4) = (     1          0          0      )    f =( -0.5000000 )
                  (     0         -1          0      )       (  0.5000000 )
                  (     0          0         -1      )       (  0.5000000 )

 cart.    s( 4) = (  1.0000000  0.0000000  0.0000000 )    f =( -0.5000000 )
                  (  0.0000000 -1.0000000  0.0000000 )       (  0.5000000 )
                  (  0.0000000  0.0000000 -1.0000000 )       (  0.3509351 )


      isym =  5     180 deg rotation - cart. axis [1,1,0]        

 cryst.   s( 5) = (     0          1          0      )
                  (     1          0          0      )
                  (     0          0         -1      )

 cart.    s( 5) = (  0.0000000  1.0000000  0.0000000 )
                  (  1.0000000  0.0000000  0.0000000 )
                  (  0.0000000  0.0000000 -1.0000000 )


      isym =  6     180 deg rotation - cart. axis [1,-1,0]       

 cryst.   s( 6) = (     0         -1          0      )
                  (    -1          0          0      )
                  (     0          0         -1      )

 cart.    s( 6) = (  0.0000000 -1.0000000  0.0000000 )
                  ( -1.0000000  0.0000000  0.0000000 )
                  (  0.0000000  0.0000000 -1.0000000 )


      isym =  7      90 deg rotation - cart. axis [0,0,-1]       

 cryst.   s( 7) = (     0         -1          0      )    f =( -0.5000000 )
                  (     1          0          0      )       (  0.5000000 )
                  (     0          0          1      )       ( -0.5000000 )

 cart.    s( 7) = (  0.0000000  1.0000000  0.0000000 )    f =( -0.5000000 )
                  ( -1.0000000  0.0000000  0.0000000 )       (  0.5000000 )
                  (  0.0000000  0.0000000  1.0000000 )       ( -0.3509351 )


      isym =  8      90 deg rotation - cart. axis [0,0,1]        

 cryst.   s( 8) = (     0          1          0      )    f =(  0.5000000 )
                  (    -1          0          0      )       ( -0.5000000 )
                  (     0          0          1      )       ( -0.5000000 )

 cart.    s( 8) = (  0.0000000 -1.0000000  0.0000000 )    f =(  0.5000000 )
                  (  1.0000000  0.0000000  0.0000000 )       ( -0.5000000 )
                  (  0.0000000  0.0000000  1.0000000 )       ( -0.3509351 )


      isym =  9     inversion                                    

 cryst.   s( 9) = (    -1          0          0      )
                  (     0         -1          0      )
                  (     0          0         -1      )

 cart.    s( 9) = ( -1.0000000  0.0000000  0.0000000 )
                  (  0.0000000 -1.0000000  0.0000000 )
                  (  0.0000000  0.0000000 -1.0000000 )


      isym = 10     inv. 180 deg rotation - cart. axis [0,0,1]   

 cryst.   s(10) = (     1          0          0      )
                  (     0          1          0      )
                  (     0          0         -1      )

 cart.    s(10) = (  1.0000000  0.0000000  0.0000000 )
                  (  0.0000000  1.0000000  0.0000000 )
                  (  0.0000000  0.0000000 -1.0000000 )


      isym = 11     inv. 180 deg rotation - cart. axis [0,1,0]   

 cryst.   s(11) = (     1          0          0      )    f =( -0.5000000 )
                  (     0         -1          0      )       (  0.5000000 )
                  (     0          0          1      )       ( -0.5000000 )

 cart.    s(11) = (  1.0000000  0.0000000  0.0000000 )    f =( -0.5000000 )
                  (  0.0000000 -1.0000000  0.0000000 )       (  0.5000000 )
                  (  0.0000000  0.0000000  1.0000000 )       ( -0.3509351 )


      isym = 12     inv. 180 deg rotation - cart. axis [1,0,0]   

 cryst.   s(12) = (    -1          0          0      )    f =(  0.5000000 )
                  (     0          1          0      )       ( -0.5000000 )
                  (     0          0          1      )       ( -0.5000000 )

 cart.    s(12) = ( -1.0000000  0.0000000  0.0000000 )    f =(  0.5000000 )
                  (  0.0000000  1.0000000  0.0000000 )       ( -0.5000000 )
                  (  0.0000000  0.0000000  1.0000000 )       ( -0.3509351 )


      isym = 13     inv. 180 deg rotation - cart. axis [1,1,0]   

 cryst.   s(13) = (     0         -1          0      )
                  (    -1          0          0      )
                  (     0          0          1      )

 cart.    s(13) = (  0.0000000 -1.0000000  0.0000000 )
                  ( -1.0000000  0.0000000  0.0000000 )
                  (  0.0000000  0.0000000  1.0000000 )


      isym = 14     inv. 180 deg rotation - cart. axis [1,-1,0]  

 cryst.   s(14) = (     0          1          0      )
                  (     1          0          0      )
                  (     0          0          1      )

 cart.    s(14) = (  0.0000000  1.0000000  0.0000000 )
                  (  1.0000000  0.0000000  0.0000000 )
                  (  0.0000000  0.0000000  1.0000000 )


      isym = 15     inv.  90 deg rotation - cart. axis [0,0,-1]  

 cryst.   s(15) = (     0          1          0      )    f =(  0.5000000 )
                  (    -1          0          0      )       ( -0.5000000 )
                  (     0          0         -1      )       (  0.5000000 )

 cart.    s(15) = (  0.0000000 -1.0000000  0.0000000 )    f =(  0.5000000 )
                  (  1.0000000  0.0000000  0.0000000 )       ( -0.5000000 )
                  (  0.0000000  0.0000000 -1.0000000 )       (  0.3509351 )


      isym = 16     inv.  90 deg rotation - cart. axis [0,0,1]   

 cryst.   s(16) = (     0         -1          0      )    f =( -0.5000000 )
                  (     1          0          0      )       (  0.5000000 )
                  (     0          0         -1      )       (  0.5000000 )

 cart.    s(16) = (  0.0000000  1.0000000  0.0000000 )    f =( -0.5000000 )
                  ( -1.0000000  0.0000000  0.0000000 )       (  0.5000000 )
                  (  0.0000000  0.0000000 -1.0000000 )       (  0.3509351 )


     double point group D_4h(4/mmm)
     there are 14 classes and  4 irreducible representations
     the character table:

       E     -E    2C4   -2C4   C2    2C2' 2C2'' i     -i    2S4   -2S4   s_h 
                               -C2   -2C2' -2C2'                         -s_h 
G_6+   2.00 -2.00  1.41 -1.41  0.00  0.00  0.00  2.00 -2.00  1.41 -1.41  0.00
G_7+   2.00 -2.00 -1.41  1.41  0.00  0.00  0.00  2.00 -2.00 -1.41  1.41  0.00
G_6-   2.00 -2.00  1.41 -1.41  0.00  0.00  0.00 -2.00  2.00 -1.41  1.41  0.00
G_7-   2.00 -2.00 -1.41  1.41  0.00  0.00  0.00 -2.00  2.00  1.41 -1.41  0.00

        2s_v  2s_d
       -2s_v -2s_d
G_6+   0.00  0.00
G_7+   0.00  0.00
G_6-   0.00  0.00
G_7-   0.00  0.00

     the symmetry operations in each class and the name of the first element:

     E             1
          identity                                               
     -E           -1
          identity E                                             
     2C4           7    8
           90 deg rotation - cart. axis [0,0,-1]                 
     -2C4         -7   -8
           90 deg rotation - cart. axis [0,0,-1] E               
      C2  -C2      2   -2
          180 deg rotation - cart. axis [0,0,1]                  
      2C2'-2C2'    3   -3    4   -4
          180 deg rotation - cart. axis [0,1,0]                  
     2C2''-2C2'    5   -5   -6    6
          180 deg rotation - cart. axis [1,1,0]                  
     i             9
          inversion                                              
     -i           -9
          inversion E                                            
     2S4          15   16
          inv.  90 deg rotation - cart. axis [0,0,-1]            
     -2S4        -15  -16
          inv.  90 deg rotation - cart. axis [0,0,-1] E          
      s_h -s_h    10  -10
          inv. 180 deg rotation - cart. axis [0,0,1]             
      2s_v-2s_v   11  -11   12  -12
          inv. 180 deg rotation - cart. axis [0,1,0]             
      2s_d-2s_d   13  -13  -14   14
          inv. 180 deg rotation - cart. axis [1,1,0]             

   Cartesian axes

     site n.     atom                  positions (alat units)
         1           Ir  tau(   1) = (   0.0000000   0.0000000   0.0000000  )
         2           Ir  tau(   2) = (   0.5000000   0.5000000   0.3509351  )
         3           O   tau(   3) = (   0.1916000   0.8084000   0.3509351  )
         4           O   tau(   4) = (   0.3084000   0.3084000   0.0000000  )
         5           O   tau(   5) = (   0.6916000   0.6916000   0.0000000  )
         6           O   tau(   6) = (   0.8084000   0.1916000   0.3509351  )

   Crystallographic axes

     site n.     atom                  positions (cryst. coord.)
         1           Ir  tau(   1) = (  0.0000000  0.0000000  0.0000000  )
         2           Ir  tau(   2) = (  0.5000000  0.5000000  0.5000000  )
         3           O   tau(   3) = (  0.1916000  0.8084000  0.5000000  )
         4           O   tau(   4) = (  0.3084000  0.3084000  0.0000000  )
         5           O   tau(   5) = (  0.6916000  0.6916000  0.0000000  )
         6           O   tau(   6) = (  0.8084000  0.1916000  0.5000000  )

     number of k points=    15  Methfessel-Paxton smearing, width (Ry)=  0.0050
                       cart. coord. in units 2pi/alat
        k(    1) = (   0.0000000   0.0000000   0.0000000), wk =   0.0123457
        k(    2) = (   0.0000000   0.1111111   0.0000000), wk =   0.0493827
        k(    3) = (   0.0000000   0.2222222   0.0000000), wk =   0.0493827
        k(    4) = (   0.0000000   0.3333333   0.0000000), wk =   0.0493827
        k(    5) = (   0.0000000   0.4444444   0.0000000), wk =   0.0493827
        k(    6) = (   0.1111111   0.1111111   0.0000000), wk =   0.0493827
        k(    7) = (   0.1111111   0.2222222   0.0000000), wk =   0.0987654
        k(    8) = (   0.1111111   0.3333333   0.0000000), wk =   0.0987654
        k(    9) = (   0.1111111   0.4444444   0.0000000), wk =   0.0987654
        k(   10) = (   0.2222222   0.2222222   0.0000000), wk =   0.0493827
        k(   11) = (   0.2222222   0.3333333   0.0000000), wk =   0.0987654
        k(   12) = (   0.2222222   0.4444444   0.0000000), wk =   0.0987654
        k(   13) = (   0.3333333   0.3333333   0.0000000), wk =   0.0493827
        k(   14) = (   0.3333333   0.4444444   0.0000000), wk =   0.0987654
        k(   15) = (   0.4444444   0.4444444   0.0000000), wk =   0.0493827

                       cryst. coord.
        k(    1) = (   0.0000000   0.0000000   0.0000000), wk =   0.0123457
        k(    2) = (   0.0000000   0.1111111   0.0000000), wk =   0.0493827
        k(    3) = (   0.0000000   0.2222222   0.0000000), wk =   0.0493827
        k(    4) = (   0.0000000   0.3333333   0.0000000), wk =   0.0493827
        k(    5) = (   0.0000000   0.4444444   0.0000000), wk =   0.0493827
        k(    6) = (   0.1111111   0.1111111   0.0000000), wk =   0.0493827
        k(    7) = (   0.1111111   0.2222222   0.0000000), wk =   0.0987654
        k(    8) = (   0.1111111   0.3333333   0.0000000), wk =   0.0987654
        k(    9) = (   0.1111111   0.4444444   0.0000000), wk =   0.0987654
        k(   10) = (   0.2222222   0.2222222   0.0000000), wk =   0.0493827
        k(   11) = (   0.2222222   0.3333333   0.0000000), wk =   0.0987654
        k(   12) = (   0.2222222   0.4444444   0.0000000), wk =   0.0987654
        k(   13) = (   0.3333333   0.3333333   0.0000000), wk =   0.0493827
        k(   14) = (   0.3333333   0.4444444   0.0000000), wk =   0.0987654
        k(   15) = (   0.4444444   0.4444444   0.0000000), wk =   0.0493827

     Dense  grid:    42999 G-vectors     FFT dimensions: (  50,  50,  36)

     Dynamical RAM for                 wfc:       0.36 MB

     Dynamical RAM for     wfc (w. buffer):       5.71 MB

     Dynamical RAM for           str. fact:       0.04 MB

     Dynamical RAM for           local pot:       0.00 MB

     Dynamical RAM for          nlocal pot:       0.46 MB

     Dynamical RAM for                qrad:      20.10 MB

     Dynamical RAM for          rho,v,vnew:       0.70 MB

     Dynamical RAM for               rhoin:       0.23 MB

     Dynamical RAM for            rho*nmix:       1.31 MB

     Dynamical RAM for           G-vectors:       0.09 MB

     Dynamical RAM for          h,s,v(r/c):       0.04 MB

     Dynamical RAM for          <psi|beta>:       0.38 MB

     Dynamical RAM for                 psi:       0.71 MB

     Dynamical RAM for                hpsi:       0.71 MB

     Dynamical RAM for      wfcinit/wfcrot:       0.67 MB

     Estimated static dynamical RAM per process >      27.70 MB

     Estimated max dynamical RAM per process >      30.86 MB

     Estimated total dynamical RAM >     987.49 MB

     Initial potential from superposition of free atoms

     starting charge      57.9997, renormalised to      58.0000
     Starting wfcs are   72 randomized atomic wfcs

     total cpu time spent up to now is        0.9 secs

     Self-consistent Calculation

     iteration #  1     ecut=    80.00 Ry     beta= 0.70
     Davidson diagonalization with overlap

---- Real-time Memory Report at c_bands before calling an iterative solver
            77 MiB given to the printing process from OS
             0 MiB allocation reported by mallinfo(arena+hblkhd)
        230037 MiB available memory on the node where the printing process lives
------------------
     ethr =  1.00E-02,  avg # of iterations =  2.3

     total cpu time spent up to now is        3.5 secs

     total energy              =    -552.54720375 Ry
     estimated scf accuracy    <       1.17392116 Ry

     iteration #  2     ecut=    80.00 Ry     beta= 0.70
     Davidson diagonalization with overlap

---- Real-time Memory Report at c_bands before calling an iterative solver
            84 MiB given to the printing process from OS
             0 MiB allocation reported by mallinfo(arena+hblkhd)
        229900 MiB available memory on the node where the printing process lives
------------------
     ethr =  2.02E-03,  avg # of iterations =  2.0

     total cpu time spent up to now is        6.3 secs

     total energy              =    -552.49853286 Ry
     estimated scf accuracy    <       3.57562497 Ry

     iteration #  3     ecut=    80.00 Ry     beta= 0.70
     Davidson diagonalization with overlap

---- Real-time Memory Report at c_bands before calling an iterative solver
            86 MiB given to the printing process from OS
             0 MiB allocation reported by mallinfo(arena+hblkhd)
        229810 MiB available memory on the node where the printing process lives
------------------
     ethr =  2.02E-03,  avg # of iterations =  2.0

     total cpu time spent up to now is        8.8 secs

     total energy              =    -553.16133866 Ry
     estimated scf accuracy    <       0.02622186 Ry

     iteration #  4     ecut=    80.00 Ry     beta= 0.70
     Davidson diagonalization with overlap

---- Real-time Memory Report at c_bands before calling an iterative solver
            87 MiB given to the printing process from OS
             0 MiB allocation reported by mallinfo(arena+hblkhd)
        229771 MiB available memory on the node where the printing process lives
------------------
     ethr =  4.52E-05,  avg # of iterations =  2.3

     total cpu time spent up to now is       11.6 secs

     total energy              =    -553.16536270 Ry
     estimated scf accuracy    <       0.00281185 Ry

     iteration #  5     ecut=    80.00 Ry     beta= 0.70
     Davidson diagonalization with overlap

---- Real-time Memory Report at c_bands before calling an iterative solver
            90 MiB given to the printing process from OS
             0 MiB allocation reported by mallinfo(arena+hblkhd)
        229757 MiB available memory on the node where the printing process lives
------------------
     ethr =  4.85E-06,  avg # of iterations =  2.3

     total cpu time spent up to now is       13.8 secs

     total energy              =    -553.16574398 Ry
     estimated scf accuracy    <       0.00011863 Ry

     iteration #  6     ecut=    80.00 Ry     beta= 0.70
     Davidson diagonalization with overlap

---- Real-time Memory Report at c_bands before calling an iterative solver
            90 MiB given to the printing process from OS
             0 MiB allocation reported by mallinfo(arena+hblkhd)
        229752 MiB available memory on the node where the printing process lives
------------------
     ethr =  2.05E-07,  avg # of iterations =  2.0

     total cpu time spent up to now is       16.3 secs

     total energy              =    -553.16575972 Ry
     estimated scf accuracy    <       0.00000592 Ry

     iteration #  7     ecut=    80.00 Ry     beta= 0.70
     Davidson diagonalization with overlap

---- Real-time Memory Report at c_bands before calling an iterative solver
            91 MiB given to the printing process from OS
             0 MiB allocation reported by mallinfo(arena+hblkhd)
        229741 MiB available memory on the node where the printing process lives
------------------
     ethr =  1.02E-08,  avg # of iterations =  2.0

     total cpu time spent up to now is       19.1 secs

     total energy              =    -553.16576161 Ry
     estimated scf accuracy    <       0.00000068 Ry

     iteration #  8     ecut=    80.00 Ry     beta= 0.70
     Davidson diagonalization with overlap

---- Real-time Memory Report at c_bands before calling an iterative solver
            91 MiB given to the printing process from OS
             0 MiB allocation reported by mallinfo(arena+hblkhd)
        229712 MiB available memory on the node where the printing process lives
------------------
     ethr =  1.16E-09,  avg # of iterations =  2.1

     total cpu time spent up to now is       21.6 secs

     total energy              =    -553.16576174 Ry
     estimated scf accuracy    <       0.00000002 Ry

     iteration #  9     ecut=    80.00 Ry     beta= 0.70
     Davidson diagonalization with overlap

---- Real-time Memory Report at c_bands before calling an iterative solver
            92 MiB given to the printing process from OS
             0 MiB allocation reported by mallinfo(arena+hblkhd)
        229711 MiB available memory on the node where the printing process lives
------------------
     ethr =  4.11E-11,  avg # of iterations =  2.1

     total cpu time spent up to now is       24.2 secs

     total energy              =    -553.16576174 Ry
     estimated scf accuracy    <          3.1E-09 Ry

     iteration # 10     ecut=    80.00 Ry     beta= 0.70
     Davidson diagonalization with overlap

---- Real-time Memory Report at c_bands before calling an iterative solver
            92 MiB given to the printing process from OS
             0 MiB allocation reported by mallinfo(arena+hblkhd)
        229709 MiB available memory on the node where the printing process lives
------------------
     ethr =  5.35E-12,  avg # of iterations =  2.0

     total cpu time spent up to now is       26.8 secs

     End of self-consistent calculation

          k = 0.0000 0.0000 0.0000 (  5409 PWs)   bands (ev):

   -79.3425 -79.3425 -79.3412 -79.3412 -46.1645 -46.1645 -46.1538 -46.1538
   -32.6904 -32.6904 -32.6828 -32.6828 -32.5640 -32.5640 -32.5313 -32.5313
    -7.0299  -7.0299  -5.8693  -5.8693  -4.9529  -4.9529  -4.7514  -4.7514
     4.3026   4.3026   4.5428   4.5428   6.1190   6.1190   6.2378   6.2378
     6.2811   6.2811   8.8705   8.8705   8.9715   8.9715   9.2296   9.2296
    10.4306  10.4306  11.0093  11.0093  11.0529  11.0529  11.0690  11.0690
    11.3057  11.3057  11.4632  11.4632  11.6423  11.6423  11.7685  11.7685
    12.1270  12.1270  14.7405  14.7405  15.1262  15.1262  17.7707  17.7707
    17.9459  17.9459  18.1327  18.1327  19.4964  19.4964

     occupation numbers 
     1.0000   1.0000   1.0000   1.0000   1.0000   1.0000   1.0000   1.0000
     1.0000   1.0000   1.0000   1.0000   1.0000   1.0000   1.0000   1.0000
     1.0000   1.0000   1.0000   1.0000   1.0000   1.0000   1.0000   1.0000
     1.0000   1.0000   1.0000   1.0000   1.0000   1.0000   1.0000   1.0000
     1.0000   1.0000   1.0000   1.0000   1.0000   1.0000   1.0000   1.0000
     1.0000   1.0000   1.0000   1.0000   1.0000   1.0000   1.0000   1.0000
     1.0000   1.0000   1.0000   1.0000   1.0000   1.0000   1.0000   1.0000
     1.0000   1.0000  -0.0000  -0.0000  -0.0000  -0.0000  -0.0000  -0.0000
    -0.0000  -0.0000  -0.0000  -0.0000  -0.0000  -0.0000

          k = 0.0000 0.1111 0.0000 (  5373 PWs)   bands (ev):

   -79.3425 -79.3425 -79.3413 -79.3413 -46.1642 -46.1642 -46.1541 -46.1541
   -32.6899 -32.6899 -32.6827 -32.6827 -32.5635 -32.5635 -32.5326 -32.5326
    -6.9831  -6.9831  -5.8631  -5.8631  -4.9934  -4.9934  -4.7994  -4.7994
     4.4219   4.4219   4.6322   4.6322   6.1405   6.1405   6.2486   6.2486
     6.3553   6.3553   8.7946   8.7946   8.8104   8.8104   9.0633   9.0633
    10.1649  10.1649  10.5997  10.5997  10.8018  10.8018  11.3867  11.3867
    11.4845  11.4845  11.5707  11.5707  11.7256  11.7256  11.9099  11.9099
    12.2935  12.2935  14.9301  14.9301  15.0433  15.0433  17.7266  17.7266
    18.0652  18.0652  18.1600  18.1600  19.3853  19.3853

     occupation numbers 
     1.0000   1.0000   1.0000   1.0000   1.0000   1.0000   1.0000   1.0000
     1.0000   1.0000   1.0000   1.0000   1.0000   1.0000   1.0000   1.0000
     1.0000   1.0000   1.0000   1.0000   1.0000   1.0000   1.0000   1.0000
     1.0000   1.0000   1.0000   1.0000   1.0000   1.0000   1.0000   1.0000
     1.0000   1.0000   1.0000   1.0000   1.0000   1.0000   1.0000   1.0000
     1.0000   1.0000   1.0000   1.0000   1.0000   1.0000   1.0000   1.0000
     1.0000   1.0000   1.0000   1.0000   1.0000   1.0000   1.0000   1.0000
     1.0000   1.0000  -0.0000  -0.0000  -0.0000  -0.0000  -0.0000  -0.0000
    -0.0000  -0.0000  -0.0000  -0.0000  -0.0000  -0.0000

          k = 0.0000 0.2222 0.0000 (  5367 PWs)   bands (ev):

   -79.3424 -79.3424 -79.3414 -79.3414 -46.1632 -46.1632 -46.1551 -46.1551
   -32.6886 -32.6886 -32.6825 -32.6825 -32.5617 -32.5617 -32.5363 -32.5363
    -6.8468  -6.8468  -5.8599  -5.8599  -5.1071  -5.1071  -4.9133  -4.9133
     4.7497   4.7497   4.8873   4.8873   6.1893   6.1893   6.2765   6.2765
     6.5863   6.5863   8.3479   8.3479   8.5304   8.5304   8.7921   8.7921
     9.7148   9.7148   9.8758   9.8758  10.6347  10.6347  11.4186  11.4186
    11.7173  11.7173  11.8151  11.8151  12.0427  12.0427  12.2201  12.2201
    12.6187  12.6187  14.7568  14.7568  15.4946  15.4946  17.5934  17.5934
    17.8892  17.8892  18.7453  18.7453  19.0636  19.0636

     occupation numbers 
     1.0000   1.0000   1.0000   1.0000   1.0000   1.0000   1.0000   1.0000
     1.0000   1.0000   1.0000   1.0000   1.0000   1.0000   1.0000   1.0000
     1.0000   1.0000   1.0000   1.0000   1.0000   1.0000   1.0000   1.0000
     1.0000   1.0000   1.0000   1.0000   1.0000   1.0000   1.0000   1.0000
     1.0000   1.0000   1.0000   1.0000   1.0000   1.0000   1.0000   1.0000
     1.0000   1.0000   1.0000   1.0000   1.0000   1.0000   1.0000   1.0000
     1.0000   1.0000   1.0000   1.0000   1.0000   1.0000   1.0000   1.0000
     1.0000   1.0000  -0.0000  -0.0000  -0.0000  -0.0000  -0.0000  -0.0000
    -0.0000  -0.0000  -0.0000  -0.0000  -0.0000  -0.0000

          k = 0.0000 0.3333 0.0000 (  5372 PWs)   bands (ev):

   -79.3422 -79.3422 -79.3415 -79.3415 -46.1618 -46.1618 -46.1565 -46.1565
   -32.6867 -32.6867 -32.6826 -32.6826 -32.5584 -32.5584 -32.5418 -32.5418
    -6.6343  -6.6343  -5.9183  -5.9183  -5.2277  -5.2277  -5.0440  -5.0440
     5.1899   5.1899   5.2636   5.2636   6.2502   6.2502   6.3087   6.3087
     6.9687   6.9687   7.8232   7.8232   7.9716   7.9716   8.7127   8.7127
     9.0529   9.0529   9.3112   9.3112  10.6201  10.6201  11.1897  11.1897
    11.9910  11.9910  12.0974  12.0974  12.3144  12.3144  12.5075  12.5075
    13.0092  13.0092  14.3738  14.3738  16.2345  16.2345  17.4433  17.4433
    17.6718  17.6718  18.5383  18.5383  19.5562  19.5562

     occupation numbers 
     1.0000   1.0000   1.0000   1.0000   1.0000   1.0000   1.0000   1.0000
     1.0000   1.0000   1.0000   1.0000   1.0000   1.0000   1.0000   1.0000
     1.0000   1.0000   1.0000   1.0000   1.0000   1.0000   1.0000   1.0000
     1.0000   1.0000   1.0000   1.0000   1.0000   1.0000   1.0000   1.0000
     1.0000   1.0000   1.0000   1.0000   1.0000   1.0000   1.0000   1.0000
     1.0000   1.0000   1.0000   1.0000   1.0000   1.0000   1.0000   1.0000
     1.0000   1.0000   1.0000   1.0000   1.0000   1.0000   1.0000   1.0000
     1.0000   1.0000  -0.0000  -0.0000  -0.0000  -0.0000  -0.0000  -0.0000
    -0.0000  -0.0000  -0.0000  -0.0000  -0.0000  -0.0000

          k = 0.0000 0.4444 0.0000 (  5372 PWs)   bands (ev):

   -79.3420 -79.3420 -79.3418 -79.3418 -46.1601 -46.1601 -46.1582 -46.1582
   -32.6848 -32.6848 -32.6833 -32.6833 -32.5537 -32.5537 -32.5479 -32.5479
    -6.3710  -6.3710  -6.1048  -6.1048  -5.2451  -5.2451  -5.1653  -5.1653
     5.5657   5.5657   5.6040   5.6040   6.3108   6.3108   6.3299   6.3299
     7.3118   7.3118   7.4652   7.4652   7.6351   7.6351   8.2610   8.2610
     8.7799   8.7799   8.9794   8.9794  10.7365  10.7365  10.9427  10.9427
    12.1652  12.1652  12.2196  12.2196  12.5312  12.5312  12.6240  12.6240
    13.4593  13.4593  13.9270  13.9270  17.0156  17.0156  17.3574  17.3574
    17.5157  17.5157  17.8855  17.8855  20.4148  20.4148

     occupation numbers 
     1.0000   1.0000   1.0000   1.0000   1.0000   1.0000   1.0000   1.0000
     1.0000   1.0000   1.0000   1.0000   1.0000   1.0000   1.0000   1.0000
     1.0000   1.0000   1.0000   1.0000   1.0000   1.0000   1.0000   1.0000
     1.0000   1.0000   1.0000   1.0000   1.0000   1.0000   1.0000   1.0000
     1.0000   1.0000   1.0000   1.0000   1.0000   1.0000   1.0000   1.0000
     1.0000   1.0000   1.0000   1.0000   1.0000   1.0000   1.0000   1.0000
     1.0000   1.0000   1.0000   1.0000   1.0000   1.0000   1.0000   1.0000
     1.0000   1.0000   0.7182   0.7182  -0.0000  -0.0000  -0.0000  -0.0000
    -0.0000  -0.0000  -0.0000  -0.0000  -0.0000  -0.0000

          k = 0.1111 0.1111 0.0000 (  5365 PWs)   bands (ev):

   -79.3424 -79.3424 -79.3413 -79.3413 -46.1639 -46.1639 -46.1544 -46.1544
   -32.6896 -32.6896 -32.6826 -32.6826 -32.5629 -32.5629 -32.5338 -32.5338
    -6.9399  -6.9399  -5.8591  -5.8591  -5.0455  -5.0455  -4.8224  -4.8224
     4.4053   4.4053   4.8395   4.8395   6.1473   6.1473   6.2648   6.2648
     6.4306   6.4306   8.4417   8.4417   8.7891   8.7891   9.0897   9.0897
    10.0659  10.0659  10.4832  10.4832  10.6487  10.6487  11.2329  11.2329
    11.5225  11.5225  11.6552  11.6552  11.8954  11.8954  12.0431  12.0431
    12.4528  12.4528  14.9533  14.9533  15.0711  15.0711  17.6570  17.6570
    18.0385  18.0385  18.3906  18.3906  19.2704  19.2704

     occupation numbers 
     1.0000   1.0000   1.0000   1.0000   1.0000   1.0000   1.0000   1.0000
     1.0000   1.0000   1.0000   1.0000   1.0000   1.0000   1.0000   1.0000
     1.0000   1.0000   1.0000   1.0000   1.0000   1.0000   1.0000   1.0000
     1.0000   1.0000   1.0000   1.0000   1.0000   1.0000   1.0000   1.0000
     1.0000   1.0000   1.0000   1.0000   1.0000   1.0000   1.0000   1.0000
     1.0000   1.0000   1.0000   1.0000   1.0000   1.0000   1.0000   1.0000
     1.0000   1.0000   1.0000   1.0000   1.0000   1.0000   1.0000   1.0000
     1.0000   1.0000  -0.0000  -0.0000  -0.0000  -0.0000  -0.0000  -0.0000
    -0.0000  -0.0000  -0.0000  -0.0000  -0.0000  -0.0000

          k = 0.1111 0.2222 0.0000 (  5375 PWs)   bands (ev):

   -79.3423 -79.3423 -79.3414 -79.3414 -46.1630 -46.1630 -46.1553 -46.1553
   -32.6885 -32.6885 -32.6825 -32.6825 -32.5611 -32.5611 -32.5372 -32.5372
    -6.8145  -6.8145  -5.8653  -5.8653  -5.1627  -5.1627  -4.8946  -4.8946
     4.5252   4.5252   5.2408   5.2408   6.1687   6.1687   6.3013   6.3013
     6.6576   6.6576   7.8823   7.8823   8.6978   8.6978   8.8847   8.8847
     9.7691   9.7691   9.9884   9.9884  10.4333  10.4333  11.3490  11.3490
    11.4676  11.4676  11.8311  11.8311  12.1270  12.1270  12.3644  12.3644
    12.7522  12.7522  14.7201  14.7201  15.4878  15.4878  17.5116  17.5116
    17.9356  17.9356  18.9204  18.9204  19.0043  19.0043

     occupation numbers 
     1.0000   1.0000   1.0000   1.0000   1.0000   1.0000   1.0000   1.0000
     1.0000   1.0000   1.0000   1.0000   1.0000   1.0000   1.0000   1.0000
     1.0000   1.0000   1.0000   1.0000   1.0000   1.0000   1.0000   1.0000
     1.0000   1.0000   1.0000   1.0000   1.0000   1.0000   1.0000   1.0000
     1.0000   1.0000   1.0000   1.0000   1.0000   1.0000   1.0000   1.0000
     1.0000   1.0000   1.0000   1.0000   1.0000   1.0000   1.0000   1.0000
     1.0000   1.0000   1.0000   1.0000   1.0000   1.0000   1.0000   1.0000
     1.0000   1.0000  -0.0000  -0.0000  -0.0000  -0.0000  -0.0000  -0.0000
    -0.0000  -0.0000  -0.0000  -0.0000  -0.0000  -0.0000

          k = 0.1111 0.3333 0.0000 (  5386 PWs)   bands (ev):

   -79.3422 -79.3422 -79.3416 -79.3416 -46.1617 -46.1617 -46.1567 -46.1567
   -32.6869 -32.6869 -32.6827 -32.6827 -32.5579 -32.5579 -32.5421 -32.5421
    -6.6194  -6.6194  -5.9416  -5.9416  -5.2483  -5.2483  -5.0061  -5.0061
     4.8152   4.8152   5.6019   5.6019   6.2096   6.2096   6.3313   6.3313
     7.0265   7.0265   7.4381   7.4381   8.3921   8.3921   8.7188   8.7188
     9.2365   9.2365   9.4156   9.4156  10.4265  10.4265  11.1093  11.1093
    11.8067  11.8067  12.0741  12.0741  12.2712  12.2712  12.5881  12.5881
    13.1086  13.1086  14.3766  14.3766  16.1338  16.1338  17.4094  17.4094
    17.7501  17.7501  18.4119  18.4119  19.7774  19.7774

     occupation numbers 
     1.0000   1.0000   1.0000   1.0000   1.0000   1.0000   1.0000   1.0000
     1.0000   1.0000   1.0000   1.0000   1.0000   1.0000   1.0000   1.0000
     1.0000   1.0000   1.0000   1.0000   1.0000   1.0000   1.0000   1.0000
     1.0000   1.0000   1.0000   1.0000   1.0000   1.0000   1.0000   1.0000
     1.0000   1.0000   1.0000   1.0000   1.0000   1.0000   1.0000   1.0000
     1.0000   1.0000   1.0000   1.0000   1.0000   1.0000   1.0000   1.0000
     1.0000   1.0000   1.0000   1.0000   1.0000   1.0000   1.0000   1.0000
     1.0000   1.0000  -0.0000  -0.0000  -0.0000  -0.0000  -0.0000  -0.0000
    -0.0000  -0.0000  -0.0000  -0.0000  -0.0000  -0.0000

          k = 0.1111 0.4444 0.0000 (  5375 PWs)   bands (ev):

   -79.3420 -79.3420 -79.3418 -79.3418 -46.1600 -46.1600 -46.1583 -46.1583
   -32.6851 -32.6851 -32.6836 -32.6836 -32.5533 -32.5533 -32.5478 -32.5478
    -6.3781  -6.3781  -6.1304  -6.1304  -5.2276  -5.2276  -5.1296  -5.1296
     5.2180   5.2180   5.5848   5.5848   6.2624   6.2624   6.3160   6.3160
     7.3604   7.3604   7.5768   7.5768   7.9561   7.9561   8.4289   8.4289
     8.8463   8.8463   9.0773   9.0773  10.5835  10.5835  10.8311  10.8311
    12.0735  12.0735  12.1921  12.1921  12.4203  12.4203  12.5937  12.5937
    13.5299  13.5299  13.9674  13.9674  16.8704  16.8704  17.3924  17.3924
    17.5404  17.5404  17.8034  17.8034  20.5976  20.5976

     occupation numbers 
     1.0000   1.0000   1.0000   1.0000   1.0000   1.0000   1.0000   1.0000
     1.0000   1.0000   1.0000   1.0000   1.0000   1.0000   1.0000   1.0000
     1.0000   1.0000   1.0000   1.0000   1.0000   1.0000   1.0000   1.0000
     1.0000   1.0000   1.0000   1.0000   1.0000   1.0000   1.0000   1.0000
     1.0000   1.0000   1.0000   1.0000   1.0000   1.0000   1.0000   1.0000
     1.0000   1.0000   1.0000   1.0000   1.0000   1.0000   1.0000   1.0000
     1.0000   1.0000   1.0000   1.0000   1.0000   1.0000   1.0000   1.0000
     1.0000   1.0000   0.2397   0.2397  -0.0000  -0.0000  -0.0000  -0.0000
    -0.0000  -0.0000  -0.0000  -0.0000  -0.0000  -0.0000

          k = 0.2222 0.2222 0.0000 (  5375 PWs)   bands (ev):

   -79.3423 -79.3423 -79.3415 -79.3415 -46.1623 -46.1623 -46.1560 -46.1560
   -32.6881 -32.6881 -32.6826 -32.6826 -32.5592 -32.5592 -32.5396 -32.5396
    -6.7206  -6.7206  -5.9040  -5.9040  -5.2402  -5.2402  -4.8980  -4.8980
     4.4289   4.4289   5.6131   5.6131   6.1489   6.1489   6.3329   6.3329
     6.8637   6.8637   7.4305   7.4305   8.6961   8.6961   8.9703   8.9703
     9.7852   9.7852   9.9273   9.9273  10.2251  10.2251  11.1742  11.1742
    11.2777  11.2777  11.7654  11.7654  12.2420  12.2420  12.5729  12.5729
    13.0287  13.0287  14.5881  14.5881  15.6078  15.6078  17.4183  17.4183
    17.9387  17.9387  18.5892  18.5892  19.5825  19.5825

     occupation numbers 
     1.0000   1.0000   1.0000   1.0000   1.0000   1.0000   1.0000   1.0000
     1.0000   1.0000   1.0000   1.0000   1.0000   1.0000   1.0000   1.0000
     1.0000   1.0000   1.0000   1.0000   1.0000   1.0000   1.0000   1.0000
     1.0000   1.0000   1.0000   1.0000   1.0000   1.0000   1.0000   1.0000
     1.0000   1.0000   1.0000   1.0000   1.0000   1.0000   1.0000   1.0000
     1.0000   1.0000   1.0000   1.0000   1.0000   1.0000   1.0000   1.0000
     1.0000   1.0000   1.0000   1.0000   1.0000   1.0000   1.0000   1.0000
     1.0000   1.0000  -0.0000  -0.0000  -0.0000  -0.0000  -0.0000  -0.0000
    -0.0000  -0.0000  -0.0000  -0.0000  -0.0000  -0.0000

          k = 0.2222 0.3333 0.0000 (  5388 PWs)   bands (ev):

   -79.3421 -79.3421 -79.3416 -79.3416 -46.1612 -46.1612 -46.1571 -46.1571
   -32.6872 -32.6872 -32.6833 -32.6833 -32.5562 -32.5562 -32.5432 -32.5432
    -6.5746  -6.5746  -6.0170  -6.0170  -5.2445  -5.2445  -4.9572  -4.9572
     4.5310   4.5310   5.5941   5.5941   6.1545   6.1545   6.3137   6.3137
     7.1977   7.1977   7.4956   7.4956   8.7071   8.7071   8.8018   8.8018
     9.5756   9.5756   9.6509   9.6509  10.0411  10.0411  10.9069  10.9069
    11.4753  11.4753  11.8888  11.8888  12.2496  12.2496  12.6014  12.6014
    13.3551  13.3551  14.3569  14.3569  15.9883  15.9883  17.4373  17.4373
    17.7539  17.7539  18.1489  18.1489  20.3145  20.3145

     occupation numbers 
     1.0000   1.0000   1.0000   1.0000   1.0000   1.0000   1.0000   1.0000
     1.0000   1.0000   1.0000   1.0000   1.0000   1.0000   1.0000   1.0000
     1.0000   1.0000   1.0000   1.0000   1.0000   1.0000   1.0000   1.0000
     1.0000   1.0000   1.0000   1.0000   1.0000   1.0000   1.0000   1.0000
     1.0000   1.0000   1.0000   1.0000   1.0000   1.0000   1.0000   1.0000
     1.0000   1.0000   1.0000   1.0000   1.0000   1.0000   1.0000   1.0000
     1.0000   1.0000   1.0000   1.0000   1.0000   1.0000   1.0000   1.0000
     1.0000   1.0000  -0.0000  -0.0000  -0.0000  -0.0000  -0.0000  -0.0000
    -0.0000  -0.0000  -0.0000  -0.0000  -0.0000  -0.0000

          k = 0.2222 0.4444 0.0000 (  5389 PWs)   bands (ev):

   -79.3420 -79.3420 -79.3418 -79.3418 -46.1599 -46.1599 -46.1585 -46.1585
   -32.6859 -32.6859 -32.6844 -32.6844 -32.5522 -32.5522 -32.5476 -32.5476
    -6.3917  -6.3917  -6.1944  -6.1944  -5.1690  -5.1690  -5.0585  -5.0585
     4.8131   4.8131   5.2167   5.2167   6.1906   6.1906   6.2501   6.2501
     7.6285   7.6285   7.9104   7.9104   8.4106   8.4106   8.8684   8.8684
     9.0876   9.0876   9.3159   9.3159  10.2271  10.2271  10.5576  10.5576
    11.8168  11.8168  12.0367  12.0367  12.2266  12.2266  12.4387  12.4387
    13.7069  13.7069  14.0536  14.0536  16.5678  16.5678  17.2086  17.2086
    17.6162  17.6162  17.8410  17.8410  21.0448  21.0448

     occupation numbers 
     1.0000   1.0000   1.0000   1.0000   1.0000   1.0000   1.0000   1.0000
     1.0000   1.0000   1.0000   1.0000   1.0000   1.0000   1.0000   1.0000
     1.0000   1.0000   1.0000   1.0000   1.0000   1.0000   1.0000   1.0000
     1.0000   1.0000   1.0000   1.0000   1.0000   1.0000   1.0000   1.0000
     1.0000   1.0000   1.0000   1.0000   1.0000   1.0000   1.0000   1.0000
     1.0000   1.0000   1.0000   1.0000   1.0000   1.0000   1.0000   1.0000
     1.0000   1.0000   1.0000   1.0000   1.0000   1.0000   1.0000   1.0000
     1.0000   1.0000  -0.0234  -0.0234  -0.0000  -0.0000  -0.0000  -0.0000
    -0.0000  -0.0000  -0.0000  -0.0000  -0.0000  -0.0000

          k = 0.3333 0.3333 0.0000 (  5393 PWs)   bands (ev):

   -79.3420 -79.3420 -79.3417 -79.3417 -46.1605 -46.1605 -46.1579 -46.1579
   -32.6872 -32.6872 -32.6842 -32.6842 -32.5536 -32.5536 -32.5451 -32.5451
    -6.4996  -6.4996  -6.1360  -6.1360  -5.1817  -5.1817  -4.9517  -4.9517
     4.4303   4.4303   5.2175   5.2175   6.1238   6.1238   6.2449   6.2449
     7.5431   7.5431   7.9813   7.9813   8.8530   8.8530   8.9796   8.9796
     9.6382   9.6382   9.7118   9.7118   9.8242   9.8242  10.7298  10.7298
    11.2572  11.2572  11.7629  11.7629  12.1357  12.1357  12.4441  12.4441
    13.6417  13.6417  14.2741  14.2741  16.0280  16.0280  17.3274  17.3274
    17.6067  17.6067  18.0580  18.0580  20.9603  20.9603

     occupation numbers 
     1.0000   1.0000   1.0000   1.0000   1.0000   1.0000   1.0000   1.0000
     1.0000   1.0000   1.0000   1.0000   1.0000   1.0000   1.0000   1.0000
     1.0000   1.0000   1.0000   1.0000   1.0000   1.0000   1.0000   1.0000
     1.0000   1.0000   1.0000   1.0000   1.0000   1.0000   1.0000   1.0000
     1.0000   1.0000   1.0000   1.0000   1.0000   1.0000   1.0000   1.0000
     1.0000   1.0000   1.0000   1.0000   1.0000   1.0000   1.0000   1.0000
     1.0000   1.0000   1.0000   1.0000   1.0000   1.0000   1.0000   1.0000
     1.0000   1.0000  -0.0000  -0.0000  -0.0000  -0.0000  -0.0000  -0.0000
    -0.0000  -0.0000  -0.0000  -0.0000  -0.0000  -0.0000

          k = 0.3333 0.4444 0.0000 (  5392 PWs)   bands (ev):

   -79.3419 -79.3419 -79.3418 -79.3418 -46.1597 -46.1597 -46.1587 -46.1587
   -32.6866 -32.6866 -32.6855 -32.6855 -32.5506 -32.5506 -32.5476 -32.5476
    -6.3961  -6.3961  -6.2704  -6.2704  -5.0871  -5.0871  -5.0000  -5.0000
     4.5295   4.5295   4.8112   4.8112   6.1316   6.1316   6.1764   6.1764
     7.9660   7.9660   8.3257   8.3257   8.8344   8.8344   9.1900   9.1900
     9.4410   9.4410   9.5815   9.5815   9.9105   9.9105  10.3633  10.3633
    11.4637  11.4637  11.7513  11.7513  12.0070  12.0070  12.1982  12.1982
    13.9010  13.9010  14.1182  14.1182  16.3189  16.3189  16.7926  16.7926
    17.7966  17.7966  17.9658  17.9658  21.5869  21.5872

     occupation numbers 
     1.0000   1.0000   1.0000   1.0000   1.0000   1.0000   1.0000   1.0000
     1.0000   1.0000   1.0000   1.0000   1.0000   1.0000   1.0000   1.0000
     1.0000   1.0000   1.0000   1.0000   1.0000   1.0000   1.0000   1.0000
     1.0000   1.0000   1.0000   1.0000   1.0000   1.0000   1.0000   1.0000
     1.0000   1.0000   1.0000   1.0000   1.0000   1.0000   1.0000   1.0000
     1.0000   1.0000   1.0000   1.0000   1.0000   1.0000   1.0000   1.0000
     1.0000   1.0000   1.0000   1.0000   1.0000   1.0000   1.0000   1.0000
     0.9412   0.9412  -0.0010  -0.0010  -0.0000  -0.0000  -0.0000  -0.0000
    -0.0000  -0.0000  -0.0000  -0.0000  -0.0000  -0.0000

          k = 0.4444 0.4444 0.0000 (  5408 PWs)   bands (ev):

   -79.3419 -79.3419 -79.3418 -79.3418 -46.1594 -46.1594 -46.1590 -46.1590
   -32.6868 -32.6868 -32.6864 -32.6864 -32.5492 -32.5492 -32.5481 -32.5481
    -6.3791  -6.3791  -6.3360  -6.3360  -5.0159  -5.0159  -4.9830  -4.9830
     4.4288   4.4288   4.5285   4.5285   6.1062   6.1062   6.1227   6.1227
     8.3689   8.3689   8.7289   8.7289   8.7913   8.7913   9.1557   9.1557
     9.5798   9.5798   9.6871   9.6871  10.1185  10.1185  10.4282  10.4282
    11.2253  11.2253  11.4239  11.4239  11.8566  11.8566  11.9564  11.9564
    14.0432  14.0432  14.1172  14.1172  16.2647  16.2647  16.4379  16.4379
    17.9522  17.9522  18.0154  18.0154  22.1065  22.1066

     occupation numbers 
     1.0000   1.0000   1.0000   1.0000   1.0000   1.0000   1.0000   1.0000
     1.0000   1.0000   1.0000   1.0000   1.0000   1.0000   1.0000   1.0000
     1.0000   1.0000   1.0000   1.0000   1.0000   1.0000   1.0000   1.0000
     1.0000   1.0000   1.0000   1.0000   1.0000   1.0000   1.0000   1.0000
     1.0000   1.0000   1.0000   1.0000   1.0000   1.0000   1.0000   1.0000
     1.0000   1.0000   1.0000   1.0000   1.0000   1.0000   1.0000   1.0000
     1.0000   1.0000   1.0000   1.0000   1.0000   1.0000   1.0000   1.0000
    -0.0302  -0.0302  -0.0010  -0.0010  -0.0000  -0.0000  -0.0000  -0.0000
    -0.0000  -0.0000  -0.0000  -0.0000  -0.0000  -0.0000

     the Fermi energy is    13.9453 ev

!    total energy              =    -553.16576174 Ry
     estimated scf accuracy    <          1.2E-10 Ry
     smearing contrib. (-TS)   =      -0.00009179 Ry
     internal energy E=F+TS    =    -553.16566995 Ry

     The total energy is F=E-TS. E is the sum of the following terms:
     one-electron contribution =    -191.21446920 Ry
     hartree contribution      =     122.98489525 Ry
     xc contribution           =     -69.95008548 Ry
     ewald contribution        =    -414.98601052 Ry

     convergence has been achieved in  10 iterations

     Forces acting on atoms (cartesian axes, Ry/au):

     atom    1 type  2   force =     0.00000000    0.00000000    0.00000000
     atom    2 type  2   force =     0.00000000    0.00000000    0.00000000
     atom    3 type  1   force =    -0.01325812    0.01325812    0.00000000
     atom    4 type  1   force =     0.01325812    0.01325812   -0.00000000
     atom    5 type  1   force =    -0.01325812   -0.01325812   -0.00000000
     atom    6 type  1   force =     0.01325812   -0.01325812    0.00000000
     The non-local contrib.  to forces
     atom    1 type  2   force =     0.00000000    0.00000000    0.00000000
     atom    2 type  2   force =     0.00000000    0.00000000    0.00000000
     atom    3 type  1   force =    -0.02361450    0.02361450   -0.00000000
     atom    4 type  1   force =     0.02361450    0.02361450    0.00000000
     atom    5 type  1   force =    -0.02361450   -0.02361450    0.00000000
     atom    6 type  1   force =     0.02361450   -0.02361450   -0.00000000
     The ionic contribution  to forces
     atom    1 type  2   force =    -0.00000000   -0.00000000    0.00000000
     atom    2 type  2   force =     0.00000000    0.00000000   -0.00000000
     atom    3 type  1   force =     1.42937233   -1.42937233    0.00000000
     atom    4 type  1   force =    -1.42937233   -1.42937233   -0.00000000
     atom    5 type  1   force =     1.42937233    1.42937233   -0.00000000
     atom    6 type  1   force =    -1.42937233    1.42937233    0.00000000
     The local contribution  to forces
     atom    1 type  2   force =     0.00000000    0.00000000   -0.00000000
     atom    2 type  2   force =     0.00000000    0.00000000    0.00000000
     atom    3 type  1   force =    -1.41901662    1.41901662    0.00000000
     atom    4 type  1   force =     1.41901662    1.41901662   -0.00000000
     atom    5 type  1   force =    -1.41901662   -1.41901662    0.00000000
     atom    6 type  1   force =     1.41901662   -1.41901662    0.00000000
     The core correction contribution to forces
     atom    1 type  2   force =     0.00000000    0.00000000    0.00000000
     atom    2 type  2   force =     0.00000000    0.00000000    0.00000000
     atom    3 type  1   force =     0.00000000    0.00000000    0.00000000
     atom    4 type  1   force =     0.00000000    0.00000000    0.00000000
     atom    5 type  1   force =     0.00000000    0.00000000    0.00000000
     atom    6 type  1   force =     0.00000000    0.00000000    0.00000000
     The Hubbard contrib.    to forces
     atom    1 type  2   force =     0.00000000    0.00000000    0.00000000
     atom    2 type  2   force =     0.00000000    0.00000000    0.00000000
     atom    3 type  1   force =     0.00000000    0.00000000    0.00000000
     atom    4 type  1   force =     0.00000000    0.00000000    0.00000000
     atom    5 type  1   force =     0.00000000    0.00000000    0.00000000
     atom    6 type  1   force =     0.00000000    0.00000000    0.00000000
     The SCF correction term to forces
     atom    1 type  2   force =     0.00000000   -0.00000000    0.00000000
     atom    2 type  2   force =     0.00000000   -0.00000000   -0.00000000
     atom    3 type  1   force =     0.00000067   -0.00000067    0.00000000
     atom    4 type  1   force =    -0.00000067   -0.00000067    0.00000000
     atom    5 type  1   force =     0.00000067    0.00000067    0.00000000
     atom    6 type  1   force =    -0.00000067    0.00000067    0.00000000

     Total force =     0.037500     Total SCF correction =     0.000002


     Computing stress (Cartesian axis) and pressure

          total   stress  (Ry/bohr**3)                   (kbar)     P=     -109.21
  -0.00037527   0.00000000   0.00000000          -55.20        0.00        0.00
   0.00000000  -0.00037527   0.00000000            0.00      -55.20        0.00
   0.00000000   0.00000000  -0.00147663            0.00        0.00     -217.22

     kinetic stress (kbar)  48484.58      0.00      0.00
                                0.00  48484.58      0.00
                                0.00      0.00  47447.53

     local   stress (kbar) -12730.36     -0.00     -0.00
                               -0.00 -12730.36     -0.00
                               -0.00     -0.00 -44483.44

     nonloc. stress (kbar)  14486.96      0.00      0.00
                                0.00  14486.96      0.00
                                0.00      0.00  14673.17

     hartree stress (kbar)   9630.86     -0.00     -0.00
                               -0.00   9630.86     -0.00
                               -0.00     -0.00  21422.42

     exc-cor stress (kbar)  -7291.04      0.00     -0.00
                                0.00  -7291.04      0.00
                               -0.00      0.00  -7269.45

     corecor stress (kbar)      0.00      0.00      0.00
                                0.00      0.00      0.00
                                0.00      0.00      0.00

     ewald   stress (kbar) -52636.21     -0.00     -0.00
                               -0.00 -52636.21     -0.00
                               -0.00     -0.00 -32007.45

     hubbard stress (kbar)      0.00      0.00      0.00
                                0.00      0.00      0.00
                                0.00      0.00      0.00

     DFT-D   stress (kbar)      0.00      0.00      0.00
                                0.00      0.00      0.00
                                0.00      0.00      0.00

     XDM     stress (kbar)      0.00      0.00      0.00
                                0.00      0.00      0.00
                                0.00      0.00      0.00

     dft-nl  stress (kbar)      0.00      0.00      0.00
                                0.00      0.00      0.00
                                0.00      0.00      0.00

     TS-vdW  stress (kbar)      0.00      0.00      0.00
                                0.00      0.00      0.00
                                0.00      0.00      0.00


                                0.00      0.00      0.00
                                0.00      0.00      0.00


                                0.00      0.00      0.00


     Writing all to output data dir tmp/espresso.save/
 
     init_run     :      1.55s CPU      0.82s WALL (       1 calls)
     electrons    :     50.57s CPU     25.91s WALL (       1 calls)
     forces       :      2.58s CPU      1.32s WALL (       1 calls)
     stress       :      3.99s CPU      2.03s WALL (       1 calls)

     Called by init_run:
     wfcinit      :      1.49s CPU      0.77s WALL (       1 calls)
     wfcinit:atom :      0.01s CPU      0.00s WALL (      15 calls)
     wfcinit:wfcr :      1.45s CPU      0.74s WALL (      15 calls)
     potinit      :      0.02s CPU      0.01s WALL (       1 calls)
     hinit0       :      0.02s CPU      0.03s WALL (       1 calls)

     Called by electrons:
     c_bands      :     46.22s CPU     23.66s WALL (      10 calls)
     sum_band     :      4.21s CPU      2.15s WALL (      10 calls)
     v_of_rho     :      0.05s CPU      0.03s WALL (      11 calls)
     v_h          :      0.01s CPU      0.00s WALL (      11 calls)
     v_xc         :      0.04s CPU      0.02s WALL (      11 calls)
     mix_rho      :      0.05s CPU      0.03s WALL (      10 calls)

     Called by c_bands:
     init_us_2    :      0.14s CPU      0.08s WALL (     345 calls)
     init_us_2:cp :      0.14s CPU      0.08s WALL (     345 calls)
     cegterg      :     42.71s CPU     21.86s WALL (     150 calls)

     Called by sum_band:
     sum_band:wei :      0.03s CPU      0.01s WALL (      10 calls)
     sum_band:loo :      4.15s CPU      2.13s WALL (      10 calls)
     sum_band:buf :      0.02s CPU      0.01s WALL (     150 calls)
     sum_band:ini :      0.04s CPU      0.02s WALL (     150 calls)

     Called by *egterg:
     cdiaghg      :      5.90s CPU      3.00s WALL (     467 calls)
     cegterg:over :      2.69s CPU      1.37s WALL (     317 calls)
     cegterg:upda :      2.12s CPU      1.07s WALL (     317 calls)
     cegterg:last :      3.67s CPU      1.87s WALL (     300 calls)
     cdiaghg:chol :      0.28s CPU      0.14s WALL (     467 calls)
     cdiaghg:inve :      0.04s CPU      0.02s WALL (     467 calls)
     cdiaghg:para :      0.62s CPU      0.32s WALL (     934 calls)
     h_psi        :     28.64s CPU     14.71s WALL (     482 calls)
     g_psi        :      0.04s CPU      0.02s WALL (     317 calls)

     Called by h_psi:
     h_psi:calbec :      3.49s CPU      1.82s WALL (     482 calls)
     vloc_psi     :     20.12s CPU     10.34s WALL (     482 calls)
     add_vuspsi   :      4.97s CPU      2.52s WALL (     482 calls)

     General routines
     calbec       :      4.32s CPU      2.26s WALL (     557 calls)
     fft          :      0.05s CPU      0.03s WALL (     150 calls)
     ffts         :      0.01s CPU      0.01s WALL (      40 calls)
     fftw         :     22.73s CPU     11.67s WALL (  129920 calls)
 
     Parallel routines
 
     PWSCF        :   1m 0.60s CPU     31.62s WALL

 
   This run was terminated on:   9:39:48  10Apr2022            

=------------------------------------------------------------------------------=
   JOB DONE.
=------------------------------------------------------------------------------=
