
     Program PWSCF v.7.0 starts on 10Apr2022 at 10:41:15 

     This program is part of the open-source Quantum ESPRESSO suite
     for quantum simulation of materials; please cite
         "P. Giannozzi et al., J. Phys.:Condens. Matter 21 395502 (2009);
         "P. Giannozzi et al., J. Phys.:Condens. Matter 29 465901 (2017);
         "P. Giannozzi et al., J. Chem. Phys. 152 154105 (2020);
          URL http://www.quantum-espresso.org", 
     in publications or presentations arising from this work. More details at
     http://www.quantum-espresso.org/quote

     Parallel version (MPI & OpenMP), running on      64 processor cores
     Number of MPI processes:                32
     Threads/MPI process:                     2

     MPI processes distributed on     1 nodes
     R & G space division:  proc/nbgrp/npool/nimage =      32
     230660 MiB available memory on the printing compute node when the environment starts
 
     Reading input from kpoints_777.pwi
Warning: card &CELL ignored
Warning: card / ignored

     Current dimensions of program PWSCF are:
     Max number of different atomic species (ntypx) = 10
     Max number of k-points (npk) =  40000
     Max angular momentum in pseudopotentials (lmaxx) =  4

     Subspace diagonalization in iterative solution of the eigenvalue problem:
     one sub-group per band group will be used
     scalapack distributed-memory algorithm (size of sub-group:  5*  5 procs)

 
     Parallelization info
     --------------------
     sticks:   dense  smooth     PW     G-vecs:    dense   smooth      PW
     Min          58      58     17                 1342     1342     205
     Max          59      59     18                 1345     1345     207
     Sum        1885    1885    545                42999    42999    6571
 
     Using Slab Decomposition
 

     Title: 
     IrO2 Unit Cell                                                             


     bravais-lattice index     =            6
     lattice parameter (alat)  =       8.5888  a.u.
     unit-cell volume          =     444.6868 (a.u.)^3
     number of atoms/cell      =            6
     number of atomic types    =            2
     number of electrons       =        58.00
     number of Kohn-Sham states=           70
     kinetic-energy cutoff     =      80.0000  Ry
     charge density cutoff     =     320.0000  Ry
     scf convergence threshold =      1.0E-09
     mixing beta               =       0.7000
     number of iterations used =            8  plain     mixing
     Exchange-correlation= PBE
                           (   1   4   3   4   0   0   0)
     Non magnetic calculation with spin-orbit


     celldm(1)=   8.588800  celldm(2)=   0.000000  celldm(3)=   0.701870
     celldm(4)=   0.000000  celldm(5)=   0.000000  celldm(6)=   0.000000

     crystal axes: (cart. coord. in units of alat)
               a(1) = (   1.000000   0.000000   0.000000 )  
               a(2) = (   0.000000   1.000000   0.000000 )  
               a(3) = (   0.000000   0.000000   0.701870 )  

     reciprocal axes: (cart. coord. in units 2 pi/alat)
               b(1) = (  1.000000  0.000000  0.000000 )  
               b(2) = (  0.000000  1.000000  0.000000 )  
               b(3) = (  0.000000  0.000000  1.424765 )  


     PseudoPot. # 1 for O  read from file:
     ../../XX_PSEUDO/O_ONCV_PBE_fr.upf
     MD5 check sum: 59c925217d3b58c6d762355590b68b09
     Pseudo is Norm-conserving, Zval =  6.0
     Generated using ONCVPSP code by D. R. Hamann
     Using radial grid of  936 points,  6 beta functions with: 
                l(1) =   0
                l(2) =   0
                l(3) =   1
                l(4) =   1
                l(5) =   1
                l(6) =   1

     PseudoPot. # 2 for Ir read from file:
     ../../XX_PSEUDO/Ir_ONCV_PBE_fr.upf
     MD5 check sum: 924e909c4146afa09f62ee3401806954
     Pseudo is Norm-conserving, Zval = 17.0
     Generated using ONCVPSP code by D. R. Hamann
     Using radial grid of 1310 points, 14 beta functions with: 
                l(1) =   0
                l(2) =   0
                l(3) =   1
                l(4) =   1
                l(5) =   1
                l(6) =   1
                l(7) =   2
                l(8) =   2
                l(9) =   2
               l(10) =   2
               l(11) =   3
               l(12) =   3
               l(13) =   3
               l(14) =   3

     atomic species   valence    mass     pseudopotential
        O              6.00    15.99900     O ( 1.00)
        Ir            17.00   192.21700     Ir( 1.00)

     16 Sym. Ops., with inversion, found ( 8 have fractional translation)


                                    s                        frac. trans.

      isym =  1     identity                                     

 cryst.   s( 1) = (     1          0          0      )
                  (     0          1          0      )
                  (     0          0          1      )

 cart.    s( 1) = (  1.0000000  0.0000000  0.0000000 )
                  (  0.0000000  1.0000000  0.0000000 )
                  (  0.0000000  0.0000000  1.0000000 )


      isym =  2     180 deg rotation - cart. axis [0,0,1]        

 cryst.   s( 2) = (    -1          0          0      )
                  (     0         -1          0      )
                  (     0          0          1      )

 cart.    s( 2) = ( -1.0000000  0.0000000  0.0000000 )
                  (  0.0000000 -1.0000000  0.0000000 )
                  (  0.0000000  0.0000000  1.0000000 )


      isym =  3     180 deg rotation - cart. axis [0,1,0]        

 cryst.   s( 3) = (    -1          0          0      )    f =(  0.5000000 )
                  (     0          1          0      )       ( -0.5000000 )
                  (     0          0         -1      )       (  0.5000000 )

 cart.    s( 3) = ( -1.0000000  0.0000000  0.0000000 )    f =(  0.5000000 )
                  (  0.0000000  1.0000000  0.0000000 )       ( -0.5000000 )
                  (  0.0000000  0.0000000 -1.0000000 )       (  0.3509351 )


      isym =  4     180 deg rotation - cart. axis [1,0,0]        

 cryst.   s( 4) = (     1          0          0      )    f =( -0.5000000 )
                  (     0         -1          0      )       (  0.5000000 )
                  (     0          0         -1      )       (  0.5000000 )

 cart.    s( 4) = (  1.0000000  0.0000000  0.0000000 )    f =( -0.5000000 )
                  (  0.0000000 -1.0000000  0.0000000 )       (  0.5000000 )
                  (  0.0000000  0.0000000 -1.0000000 )       (  0.3509351 )


      isym =  5     180 deg rotation - cart. axis [1,1,0]        

 cryst.   s( 5) = (     0          1          0      )
                  (     1          0          0      )
                  (     0          0         -1      )

 cart.    s( 5) = (  0.0000000  1.0000000  0.0000000 )
                  (  1.0000000  0.0000000  0.0000000 )
                  (  0.0000000  0.0000000 -1.0000000 )


      isym =  6     180 deg rotation - cart. axis [1,-1,0]       

 cryst.   s( 6) = (     0         -1          0      )
                  (    -1          0          0      )
                  (     0          0         -1      )

 cart.    s( 6) = (  0.0000000 -1.0000000  0.0000000 )
                  ( -1.0000000  0.0000000  0.0000000 )
                  (  0.0000000  0.0000000 -1.0000000 )


      isym =  7      90 deg rotation - cart. axis [0,0,-1]       

 cryst.   s( 7) = (     0         -1          0      )    f =( -0.5000000 )
                  (     1          0          0      )       (  0.5000000 )
                  (     0          0          1      )       ( -0.5000000 )

 cart.    s( 7) = (  0.0000000  1.0000000  0.0000000 )    f =( -0.5000000 )
                  ( -1.0000000  0.0000000  0.0000000 )       (  0.5000000 )
                  (  0.0000000  0.0000000  1.0000000 )       ( -0.3509351 )


      isym =  8      90 deg rotation - cart. axis [0,0,1]        

 cryst.   s( 8) = (     0          1          0      )    f =(  0.5000000 )
                  (    -1          0          0      )       ( -0.5000000 )
                  (     0          0          1      )       ( -0.5000000 )

 cart.    s( 8) = (  0.0000000 -1.0000000  0.0000000 )    f =(  0.5000000 )
                  (  1.0000000  0.0000000  0.0000000 )       ( -0.5000000 )
                  (  0.0000000  0.0000000  1.0000000 )       ( -0.3509351 )


      isym =  9     inversion                                    

 cryst.   s( 9) = (    -1          0          0      )
                  (     0         -1          0      )
                  (     0          0         -1      )

 cart.    s( 9) = ( -1.0000000  0.0000000  0.0000000 )
                  (  0.0000000 -1.0000000  0.0000000 )
                  (  0.0000000  0.0000000 -1.0000000 )


      isym = 10     inv. 180 deg rotation - cart. axis [0,0,1]   

 cryst.   s(10) = (     1          0          0      )
                  (     0          1          0      )
                  (     0          0         -1      )

 cart.    s(10) = (  1.0000000  0.0000000  0.0000000 )
                  (  0.0000000  1.0000000  0.0000000 )
                  (  0.0000000  0.0000000 -1.0000000 )


      isym = 11     inv. 180 deg rotation - cart. axis [0,1,0]   

 cryst.   s(11) = (     1          0          0      )    f =( -0.5000000 )
                  (     0         -1          0      )       (  0.5000000 )
                  (     0          0          1      )       ( -0.5000000 )

 cart.    s(11) = (  1.0000000  0.0000000  0.0000000 )    f =( -0.5000000 )
                  (  0.0000000 -1.0000000  0.0000000 )       (  0.5000000 )
                  (  0.0000000  0.0000000  1.0000000 )       ( -0.3509351 )


      isym = 12     inv. 180 deg rotation - cart. axis [1,0,0]   

 cryst.   s(12) = (    -1          0          0      )    f =(  0.5000000 )
                  (     0          1          0      )       ( -0.5000000 )
                  (     0          0          1      )       ( -0.5000000 )

 cart.    s(12) = ( -1.0000000  0.0000000  0.0000000 )    f =(  0.5000000 )
                  (  0.0000000  1.0000000  0.0000000 )       ( -0.5000000 )
                  (  0.0000000  0.0000000  1.0000000 )       ( -0.3509351 )


      isym = 13     inv. 180 deg rotation - cart. axis [1,1,0]   

 cryst.   s(13) = (     0         -1          0      )
                  (    -1          0          0      )
                  (     0          0          1      )

 cart.    s(13) = (  0.0000000 -1.0000000  0.0000000 )
                  ( -1.0000000  0.0000000  0.0000000 )
                  (  0.0000000  0.0000000  1.0000000 )


      isym = 14     inv. 180 deg rotation - cart. axis [1,-1,0]  

 cryst.   s(14) = (     0          1          0      )
                  (     1          0          0      )
                  (     0          0          1      )

 cart.    s(14) = (  0.0000000  1.0000000  0.0000000 )
                  (  1.0000000  0.0000000  0.0000000 )
                  (  0.0000000  0.0000000  1.0000000 )


      isym = 15     inv.  90 deg rotation - cart. axis [0,0,-1]  

 cryst.   s(15) = (     0          1          0      )    f =(  0.5000000 )
                  (    -1          0          0      )       ( -0.5000000 )
                  (     0          0         -1      )       (  0.5000000 )

 cart.    s(15) = (  0.0000000 -1.0000000  0.0000000 )    f =(  0.5000000 )
                  (  1.0000000  0.0000000  0.0000000 )       ( -0.5000000 )
                  (  0.0000000  0.0000000 -1.0000000 )       (  0.3509351 )


      isym = 16     inv.  90 deg rotation - cart. axis [0,0,1]   

 cryst.   s(16) = (     0         -1          0      )    f =( -0.5000000 )
                  (     1          0          0      )       (  0.5000000 )
                  (     0          0         -1      )       (  0.5000000 )

 cart.    s(16) = (  0.0000000  1.0000000  0.0000000 )    f =( -0.5000000 )
                  ( -1.0000000  0.0000000  0.0000000 )       (  0.5000000 )
                  (  0.0000000  0.0000000 -1.0000000 )       (  0.3509351 )


     double point group D_4h(4/mmm)
     there are 14 classes and  4 irreducible representations
     the character table:

       E     -E    2C4   -2C4   C2    2C2' 2C2'' i     -i    2S4   -2S4   s_h 
                               -C2   -2C2' -2C2'                         -s_h 
G_6+   2.00 -2.00  1.41 -1.41  0.00  0.00  0.00  2.00 -2.00  1.41 -1.41  0.00
G_7+   2.00 -2.00 -1.41  1.41  0.00  0.00  0.00  2.00 -2.00 -1.41  1.41  0.00
G_6-   2.00 -2.00  1.41 -1.41  0.00  0.00  0.00 -2.00  2.00 -1.41  1.41  0.00
G_7-   2.00 -2.00 -1.41  1.41  0.00  0.00  0.00 -2.00  2.00  1.41 -1.41  0.00

        2s_v  2s_d
       -2s_v -2s_d
G_6+   0.00  0.00
G_7+   0.00  0.00
G_6-   0.00  0.00
G_7-   0.00  0.00

     the symmetry operations in each class and the name of the first element:

     E             1
          identity                                               
     -E           -1
          identity E                                             
     2C4           7    8
           90 deg rotation - cart. axis [0,0,-1]                 
     -2C4         -7   -8
           90 deg rotation - cart. axis [0,0,-1] E               
      C2  -C2      2   -2
          180 deg rotation - cart. axis [0,0,1]                  
      2C2'-2C2'    3   -3    4   -4
          180 deg rotation - cart. axis [0,1,0]                  
     2C2''-2C2'    5   -5   -6    6
          180 deg rotation - cart. axis [1,1,0]                  
     i             9
          inversion                                              
     -i           -9
          inversion E                                            
     2S4          15   16
          inv.  90 deg rotation - cart. axis [0,0,-1]            
     -2S4        -15  -16
          inv.  90 deg rotation - cart. axis [0,0,-1] E          
      s_h -s_h    10  -10
          inv. 180 deg rotation - cart. axis [0,0,1]             
      2s_v-2s_v   11  -11   12  -12
          inv. 180 deg rotation - cart. axis [0,1,0]             
      2s_d-2s_d   13  -13  -14   14
          inv. 180 deg rotation - cart. axis [1,1,0]             

   Cartesian axes

     site n.     atom                  positions (alat units)
         1           Ir  tau(   1) = (   0.0000000   0.0000000   0.0000000  )
         2           Ir  tau(   2) = (   0.5000000   0.5000000   0.3509351  )
         3           O   tau(   3) = (   0.1916000   0.8084000   0.3509351  )
         4           O   tau(   4) = (   0.3084000   0.3084000   0.0000000  )
         5           O   tau(   5) = (   0.6916000   0.6916000   0.0000000  )
         6           O   tau(   6) = (   0.8084000   0.1916000   0.3509351  )

   Crystallographic axes

     site n.     atom                  positions (cryst. coord.)
         1           Ir  tau(   1) = (  0.0000000  0.0000000  0.0000000  )
         2           Ir  tau(   2) = (  0.5000000  0.5000000  0.5000000  )
         3           O   tau(   3) = (  0.1916000  0.8084000  0.5000000  )
         4           O   tau(   4) = (  0.3084000  0.3084000  0.0000000  )
         5           O   tau(   5) = (  0.6916000  0.6916000  0.0000000  )
         6           O   tau(   6) = (  0.8084000  0.1916000  0.5000000  )

     number of k points=    40  Methfessel-Paxton smearing, width (Ry)=  0.0050
                       cart. coord. in units 2pi/alat
        k(    1) = (   0.0000000   0.0000000   0.0000000), wk =   0.0029155
        k(    2) = (   0.0000000   0.0000000   0.2035378), wk =   0.0058309
        k(    3) = (   0.0000000   0.0000000   0.4070757), wk =   0.0058309
        k(    4) = (   0.0000000   0.0000000   0.6106135), wk =   0.0058309
        k(    5) = (   0.0000000   0.1428571   0.0000000), wk =   0.0116618
        k(    6) = (   0.0000000   0.1428571   0.2035378), wk =   0.0233236
        k(    7) = (   0.0000000   0.1428571   0.4070757), wk =   0.0233236
        k(    8) = (   0.0000000   0.1428571   0.6106135), wk =   0.0233236
        k(    9) = (   0.0000000   0.2857143   0.0000000), wk =   0.0116618
        k(   10) = (   0.0000000   0.2857143   0.2035378), wk =   0.0233236
        k(   11) = (   0.0000000   0.2857143   0.4070757), wk =   0.0233236
        k(   12) = (   0.0000000   0.2857143   0.6106135), wk =   0.0233236
        k(   13) = (   0.0000000   0.4285714   0.0000000), wk =   0.0116618
        k(   14) = (   0.0000000   0.4285714   0.2035378), wk =   0.0233236
        k(   15) = (   0.0000000   0.4285714   0.4070757), wk =   0.0233236
        k(   16) = (   0.0000000   0.4285714   0.6106135), wk =   0.0233236
        k(   17) = (   0.1428571   0.1428571   0.0000000), wk =   0.0116618
        k(   18) = (   0.1428571   0.1428571   0.2035378), wk =   0.0233236
        k(   19) = (   0.1428571   0.1428571   0.4070757), wk =   0.0233236
        k(   20) = (   0.1428571   0.1428571   0.6106135), wk =   0.0233236
        k(   21) = (   0.1428571   0.2857143   0.0000000), wk =   0.0233236
        k(   22) = (   0.1428571   0.2857143   0.2035378), wk =   0.0466472
        k(   23) = (   0.1428571   0.2857143   0.4070757), wk =   0.0466472
        k(   24) = (   0.1428571   0.2857143   0.6106135), wk =   0.0466472
        k(   25) = (   0.1428571   0.4285714   0.0000000), wk =   0.0233236
        k(   26) = (   0.1428571   0.4285714   0.2035378), wk =   0.0466472
        k(   27) = (   0.1428571   0.4285714   0.4070757), wk =   0.0466472
        k(   28) = (   0.1428571   0.4285714   0.6106135), wk =   0.0466472
        k(   29) = (   0.2857143   0.2857143   0.0000000), wk =   0.0116618
        k(   30) = (   0.2857143   0.2857143   0.2035378), wk =   0.0233236
        k(   31) = (   0.2857143   0.2857143   0.4070757), wk =   0.0233236
        k(   32) = (   0.2857143   0.2857143   0.6106135), wk =   0.0233236
        k(   33) = (   0.2857143   0.4285714   0.0000000), wk =   0.0233236
        k(   34) = (   0.2857143   0.4285714   0.2035378), wk =   0.0466472
        k(   35) = (   0.2857143   0.4285714   0.4070757), wk =   0.0466472
        k(   36) = (   0.2857143   0.4285714   0.6106135), wk =   0.0466472
        k(   37) = (   0.4285714   0.4285714   0.0000000), wk =   0.0116618
        k(   38) = (   0.4285714   0.4285714   0.2035378), wk =   0.0233236
        k(   39) = (   0.4285714   0.4285714   0.4070757), wk =   0.0233236
        k(   40) = (   0.4285714   0.4285714   0.6106135), wk =   0.0233236

                       cryst. coord.
        k(    1) = (   0.0000000   0.0000000   0.0000000), wk =   0.0029155
        k(    2) = (   0.0000000   0.0000000   0.1428571), wk =   0.0058309
        k(    3) = (   0.0000000   0.0000000   0.2857143), wk =   0.0058309
        k(    4) = (   0.0000000   0.0000000   0.4285714), wk =   0.0058309
        k(    5) = (   0.0000000   0.1428571   0.0000000), wk =   0.0116618
        k(    6) = (   0.0000000   0.1428571   0.1428571), wk =   0.0233236
        k(    7) = (   0.0000000   0.1428571   0.2857143), wk =   0.0233236
        k(    8) = (   0.0000000   0.1428571   0.4285714), wk =   0.0233236
        k(    9) = (   0.0000000   0.2857143   0.0000000), wk =   0.0116618
        k(   10) = (   0.0000000   0.2857143   0.1428571), wk =   0.0233236
        k(   11) = (   0.0000000   0.2857143   0.2857143), wk =   0.0233236
        k(   12) = (   0.0000000   0.2857143   0.4285714), wk =   0.0233236
        k(   13) = (   0.0000000   0.4285714   0.0000000), wk =   0.0116618
        k(   14) = (   0.0000000   0.4285714   0.1428571), wk =   0.0233236
        k(   15) = (   0.0000000   0.4285714   0.2857143), wk =   0.0233236
        k(   16) = (   0.0000000   0.4285714   0.4285714), wk =   0.0233236
        k(   17) = (   0.1428571   0.1428571   0.0000000), wk =   0.0116618
        k(   18) = (   0.1428571   0.1428571   0.1428571), wk =   0.0233236
        k(   19) = (   0.1428571   0.1428571   0.2857143), wk =   0.0233236
        k(   20) = (   0.1428571   0.1428571   0.4285714), wk =   0.0233236
        k(   21) = (   0.1428571   0.2857143   0.0000000), wk =   0.0233236
        k(   22) = (   0.1428571   0.2857143   0.1428571), wk =   0.0466472
        k(   23) = (   0.1428571   0.2857143   0.2857143), wk =   0.0466472
        k(   24) = (   0.1428571   0.2857143   0.4285714), wk =   0.0466472
        k(   25) = (   0.1428571   0.4285714   0.0000000), wk =   0.0233236
        k(   26) = (   0.1428571   0.4285714   0.1428571), wk =   0.0466472
        k(   27) = (   0.1428571   0.4285714   0.2857143), wk =   0.0466472
        k(   28) = (   0.1428571   0.4285714   0.4285714), wk =   0.0466472
        k(   29) = (   0.2857143   0.2857143   0.0000000), wk =   0.0116618
        k(   30) = (   0.2857143   0.2857143   0.1428571), wk =   0.0233236
        k(   31) = (   0.2857143   0.2857143   0.2857143), wk =   0.0233236
        k(   32) = (   0.2857143   0.2857143   0.4285714), wk =   0.0233236
        k(   33) = (   0.2857143   0.4285714   0.0000000), wk =   0.0233236
        k(   34) = (   0.2857143   0.4285714   0.1428571), wk =   0.0466472
        k(   35) = (   0.2857143   0.4285714   0.2857143), wk =   0.0466472
        k(   36) = (   0.2857143   0.4285714   0.4285714), wk =   0.0466472
        k(   37) = (   0.4285714   0.4285714   0.0000000), wk =   0.0116618
        k(   38) = (   0.4285714   0.4285714   0.1428571), wk =   0.0233236
        k(   39) = (   0.4285714   0.4285714   0.2857143), wk =   0.0233236
        k(   40) = (   0.4285714   0.4285714   0.4285714), wk =   0.0233236

     Dense  grid:    42999 G-vectors     FFT dimensions: (  50,  50,  36)

     Dynamical RAM for                 wfc:       0.36 MB

     Dynamical RAM for     wfc (w. buffer):      14.63 MB

     Dynamical RAM for           str. fact:       0.04 MB

     Dynamical RAM for           local pot:       0.00 MB

     Dynamical RAM for          nlocal pot:       0.46 MB

     Dynamical RAM for                qrad:      20.10 MB

     Dynamical RAM for          rho,v,vnew:       0.70 MB

     Dynamical RAM for               rhoin:       0.23 MB

     Dynamical RAM for            rho*nmix:       1.31 MB

     Dynamical RAM for           G-vectors:       0.09 MB

     Dynamical RAM for          h,s,v(r/c):       0.04 MB

     Dynamical RAM for          <psi|beta>:       0.38 MB

     Dynamical RAM for                 psi:       0.71 MB

     Dynamical RAM for                hpsi:       0.71 MB

     Dynamical RAM for      wfcinit/wfcrot:       0.67 MB

     Estimated static dynamical RAM per process >      36.62 MB

     Estimated max dynamical RAM per process >      39.78 MB

     Estimated total dynamical RAM >       1.24 GB

     Initial potential from superposition of free atoms

     starting charge      57.9997, renormalised to      58.0000
     Starting wfcs are   72 randomized atomic wfcs

     total cpu time spent up to now is        2.2 secs

     Self-consistent Calculation

     iteration #  1     ecut=    80.00 Ry     beta= 0.70
     Davidson diagonalization with overlap

---- Real-time Memory Report at c_bands before calling an iterative solver
            89 MiB given to the printing process from OS
             0 MiB allocation reported by mallinfo(arena+hblkhd)
        228875 MiB available memory on the node where the printing process lives
------------------
     ethr =  1.00E-02,  avg # of iterations =  2.7

     total cpu time spent up to now is        9.1 secs

     total energy              =    -552.42654485 Ry
     estimated scf accuracy    <       1.21491099 Ry

     iteration #  2     ecut=    80.00 Ry     beta= 0.70
     Davidson diagonalization with overlap

---- Real-time Memory Report at c_bands before calling an iterative solver
            96 MiB given to the printing process from OS
             0 MiB allocation reported by mallinfo(arena+hblkhd)
        228714 MiB available memory on the node where the printing process lives
------------------
     ethr =  2.09E-03,  avg # of iterations =  2.0

     total cpu time spent up to now is       16.7 secs

     total energy              =    -552.27485198 Ry
     estimated scf accuracy    <       4.30952057 Ry

     iteration #  3     ecut=    80.00 Ry     beta= 0.70
     Davidson diagonalization with overlap

---- Real-time Memory Report at c_bands before calling an iterative solver
           100 MiB given to the printing process from OS
             0 MiB allocation reported by mallinfo(arena+hblkhd)
        228653 MiB available memory on the node where the printing process lives
------------------
     ethr =  2.09E-03,  avg # of iterations =  2.0

     total cpu time spent up to now is       23.7 secs

     total energy              =    -553.07586568 Ry
     estimated scf accuracy    <       0.03443617 Ry

     iteration #  4     ecut=    80.00 Ry     beta= 0.70
     Davidson diagonalization with overlap

---- Real-time Memory Report at c_bands before calling an iterative solver
           101 MiB given to the printing process from OS
             0 MiB allocation reported by mallinfo(arena+hblkhd)
        228646 MiB available memory on the node where the printing process lives
------------------
     ethr =  5.94E-05,  avg # of iterations =  2.5

     total cpu time spent up to now is       30.9 secs

     total energy              =    -553.07942009 Ry
     estimated scf accuracy    <       0.00500662 Ry

     iteration #  5     ecut=    80.00 Ry     beta= 0.70
     Davidson diagonalization with overlap

---- Real-time Memory Report at c_bands before calling an iterative solver
           102 MiB given to the printing process from OS
             0 MiB allocation reported by mallinfo(arena+hblkhd)
        228642 MiB available memory on the node where the printing process lives
------------------
     ethr =  8.63E-06,  avg # of iterations =  2.2

     total cpu time spent up to now is       37.2 secs

     total energy              =    -553.08029885 Ry
     estimated scf accuracy    <       0.00026120 Ry

     iteration #  6     ecut=    80.00 Ry     beta= 0.70
     Davidson diagonalization with overlap

---- Real-time Memory Report at c_bands before calling an iterative solver
           103 MiB given to the printing process from OS
             0 MiB allocation reported by mallinfo(arena+hblkhd)
        228592 MiB available memory on the node where the printing process lives
------------------
     ethr =  4.50E-07,  avg # of iterations =  2.4

     total cpu time spent up to now is       43.5 secs

     total energy              =    -553.08033433 Ry
     estimated scf accuracy    <       0.00000833 Ry

     iteration #  7     ecut=    80.00 Ry     beta= 0.70
     Davidson diagonalization with overlap

---- Real-time Memory Report at c_bands before calling an iterative solver
           103 MiB given to the printing process from OS
             0 MiB allocation reported by mallinfo(arena+hblkhd)
        228590 MiB available memory on the node where the printing process lives
------------------
     ethr =  1.44E-08,  avg # of iterations =  2.0

     total cpu time spent up to now is       51.0 secs

     total energy              =    -553.08033721 Ry
     estimated scf accuracy    <       0.00000047 Ry

     iteration #  8     ecut=    80.00 Ry     beta= 0.70
     Davidson diagonalization with overlap

---- Real-time Memory Report at c_bands before calling an iterative solver
           105 MiB given to the printing process from OS
             0 MiB allocation reported by mallinfo(arena+hblkhd)
        228531 MiB available memory on the node where the printing process lives
------------------
     ethr =  8.11E-10,  avg # of iterations =  2.1

     total cpu time spent up to now is       57.3 secs

     total energy              =    -553.08033725 Ry
     estimated scf accuracy    <       0.00000006 Ry

     iteration #  9     ecut=    80.00 Ry     beta= 0.70
     Davidson diagonalization with overlap

---- Real-time Memory Report at c_bands before calling an iterative solver
           105 MiB given to the printing process from OS
             0 MiB allocation reported by mallinfo(arena+hblkhd)
        228534 MiB available memory on the node where the printing process lives
------------------
     ethr =  9.96E-11,  avg # of iterations =  2.0

     total cpu time spent up to now is       64.2 secs

     total energy              =    -553.08033726 Ry
     estimated scf accuracy    <          3.3E-09 Ry

     iteration # 10     ecut=    80.00 Ry     beta= 0.70
     Davidson diagonalization with overlap

---- Real-time Memory Report at c_bands before calling an iterative solver
           105 MiB given to the printing process from OS
             0 MiB allocation reported by mallinfo(arena+hblkhd)
        228532 MiB available memory on the node where the printing process lives
------------------
     ethr =  5.66E-12,  avg # of iterations =  2.1

     total cpu time spent up to now is       71.3 secs

     End of self-consistent calculation

          k = 0.0000 0.0000 0.0000 (  5409 PWs)   bands (ev):

   -79.3847 -79.3847 -79.3834 -79.3834 -46.2271 -46.2271 -46.2163 -46.2163
   -32.7657 -32.7657 -32.7545 -32.7545 -32.6230 -32.6230 -32.6092 -32.6092
    -7.0740  -7.0740  -5.9181  -5.9181  -5.0032  -5.0032  -4.8018  -4.8018
     4.2692   4.2692   4.5165   4.5165   6.0329   6.0329   6.1444   6.1444
     6.2581   6.2581   8.7861   8.7861   8.9383   8.9383   9.1959   9.1959
    10.3331  10.3331  10.9886  10.9886  10.9913  10.9913  11.0311  11.0311
    11.2033  11.2033  11.3839  11.3839  11.6470  11.6470  11.6735  11.6735
    12.0581  12.0581  14.6448  14.6448  15.0707  15.0707  17.6884  17.6884
    17.8969  17.8969  18.0455  18.0455  19.4483  19.4483

     occupation numbers 
     1.0000   1.0000   1.0000   1.0000   1.0000   1.0000   1.0000   1.0000
     1.0000   1.0000   1.0000   1.0000   1.0000   1.0000   1.0000   1.0000
     1.0000   1.0000   1.0000   1.0000   1.0000   1.0000   1.0000   1.0000
     1.0000   1.0000   1.0000   1.0000   1.0000   1.0000   1.0000   1.0000
     1.0000   1.0000   1.0000   1.0000   1.0000   1.0000   1.0000   1.0000
     1.0000   1.0000   1.0000   1.0000   1.0000   1.0000   1.0000   1.0000
     1.0000   1.0000   1.0000   1.0000   1.0000   1.0000   1.0000   1.0000
     1.0000   1.0000  -0.0000  -0.0000  -0.0000  -0.0000  -0.0000  -0.0000
    -0.0000  -0.0000  -0.0000  -0.0000  -0.0000  -0.0000

          k = 0.0000 0.0000 0.2035 (  5361 PWs)   bands (ev):

   -79.3842 -79.3842 -79.3830 -79.3830 -46.2287 -46.2287 -46.2190 -46.2190
   -32.7702 -32.7702 -32.7653 -32.7653 -32.6308 -32.6308 -32.6131 -32.6131
    -6.8912  -6.8912  -5.8251  -5.8251  -5.0875  -5.0875  -4.9151  -4.9151
     4.5365   4.5365   4.7083   4.7083   6.1913   6.1913   6.2553   6.2553
     6.4547   6.4547   8.1101   8.1101   9.0516   9.0516   9.3299   9.3299
     9.3997   9.3997  10.0048  10.0048  10.0973  10.0973  11.2230  11.2230
    11.6465  11.6465  11.6890  11.6890  11.8390  11.8390  12.4860  12.4860
    12.5520  12.5520  14.8802  14.8802  15.0617  15.0617  17.2333  17.2333
    17.5452  17.5452  18.3785  18.3785  19.1431  19.1431

     occupation numbers 
     1.0000   1.0000   1.0000   1.0000   1.0000   1.0000   1.0000   1.0000
     1.0000   1.0000   1.0000   1.0000   1.0000   1.0000   1.0000   1.0000
     1.0000   1.0000   1.0000   1.0000   1.0000   1.0000   1.0000   1.0000
     1.0000   1.0000   1.0000   1.0000   1.0000   1.0000   1.0000   1.0000
     1.0000   1.0000   1.0000   1.0000   1.0000   1.0000   1.0000   1.0000
     1.0000   1.0000   1.0000   1.0000   1.0000   1.0000   1.0000   1.0000
     1.0000   1.0000   1.0000   1.0000   1.0000   1.0000   1.0000   1.0000
     1.0000   1.0000  -0.0000  -0.0000  -0.0000  -0.0000  -0.0000  -0.0000
    -0.0000  -0.0000  -0.0000  -0.0000  -0.0000  -0.0000

          k = 0.0000 0.0000 0.4071 (  5389 PWs)   bands (ev):

   -79.3830 -79.3830 -79.3822 -79.3822 -46.2319 -46.2319 -46.2252 -46.2252
   -32.7908 -32.7908 -32.7872 -32.7872 -32.6404 -32.6404 -32.6209 -32.6209
    -6.4279  -6.4279  -5.6545  -5.6545  -5.2617  -5.2617  -5.1632  -5.1632
     5.1706   5.1706   5.2382   5.2382   6.5427   6.5427   6.5784   6.5784
     7.0107   7.0107   7.0372   7.0372   7.9929   7.9929   8.9197   8.9197
     9.1053   9.1053   9.5360   9.5360   9.8283   9.8283  10.3170  10.3170
    11.8023  11.8023  12.0808  12.0808  12.1894  12.1894  13.3697  13.3697
    13.4033  13.4033  14.3753  14.3753  15.8092  15.8092  16.5032  16.5032
    16.7923  16.7923  17.7223  17.7223  20.2849  20.2849

     occupation numbers 
     1.0000   1.0000   1.0000   1.0000   1.0000   1.0000   1.0000   1.0000
     1.0000   1.0000   1.0000   1.0000   1.0000   1.0000   1.0000   1.0000
     1.0000   1.0000   1.0000   1.0000   1.0000   1.0000   1.0000   1.0000
     1.0000   1.0000   1.0000   1.0000   1.0000   1.0000   1.0000   1.0000
     1.0000   1.0000   1.0000   1.0000   1.0000   1.0000   1.0000   1.0000
     1.0000   1.0000   1.0000   1.0000   1.0000   1.0000   1.0000   1.0000
     1.0000   1.0000   1.0000   1.0000   1.0000   1.0000   1.0000   1.0000
     1.0000   1.0000  -0.0000  -0.0000  -0.0000  -0.0000  -0.0000  -0.0000
    -0.0000  -0.0000  -0.0000  -0.0000  -0.0000  -0.0000

          k = 0.0000 0.0000 0.6106 (  5406 PWs)   bands (ev):

   -79.3820 -79.3820 -79.3817 -79.3817 -46.2335 -46.2335 -46.2312 -46.2312
   -32.8111 -32.8111 -32.8083 -32.8083 -32.6380 -32.6380 -32.6295 -32.6295
    -5.9156  -5.9156  -5.6359  -5.6359  -5.3851  -5.3851  -5.3643  -5.3643
     5.5934   5.5934   5.8146   5.8146   6.4470   6.4470   6.9659   6.9659
     7.0219   7.0219   7.0768   7.0768   7.9598   7.9598   8.2930   8.2930
     8.3902   8.3902   9.1348   9.1348   9.8636   9.8636   9.9865   9.9865
    11.8084  11.8084  12.0405  12.0405  12.7166  12.7166  13.4320  13.4320
    14.0026  14.0026  14.1092  14.1092  16.0896  16.0896  16.1410  16.1410
    16.5287  16.5287  16.8186  16.8186  22.0878  22.0878

     occupation numbers 
     1.0000   1.0000   1.0000   1.0000   1.0000   1.0000   1.0000   1.0000
     1.0000   1.0000   1.0000   1.0000   1.0000   1.0000   1.0000   1.0000
     1.0000   1.0000   1.0000   1.0000   1.0000   1.0000   1.0000   1.0000
     1.0000   1.0000   1.0000   1.0000   1.0000   1.0000   1.0000   1.0000
     1.0000   1.0000   1.0000   1.0000   1.0000   1.0000   1.0000   1.0000
     1.0000   1.0000   1.0000   1.0000   1.0000   1.0000   1.0000   1.0000
     1.0000   1.0000   1.0000   1.0000   1.0000   1.0000   1.0000   1.0000
    -0.0208  -0.0208  -0.0000  -0.0000  -0.0000  -0.0000  -0.0000  -0.0000
    -0.0000  -0.0000  -0.0000  -0.0000  -0.0000  -0.0000

          k = 0.0000 0.1429 0.0000 (  5381 PWs)   bands (ev):

   -79.3846 -79.3846 -79.3834 -79.3834 -46.2266 -46.2266 -46.2169 -46.2169
   -32.7646 -32.7646 -32.7544 -32.7544 -32.6230 -32.6230 -32.6106 -32.6106
    -6.9971  -6.9971  -5.9091  -5.9091  -5.0695  -5.0695  -4.8780  -4.8780
     4.4642   4.4642   4.6640   4.6640   6.0624   6.0624   6.1619   6.1619
     6.3855   6.3855   8.6471   8.6471   8.6899   8.6899   8.9231   8.9231
     9.9454   9.9454  10.3704  10.3704  10.7278  10.7278  11.3998  11.3998
    11.4805  11.4805  11.5345  11.5345  11.7568  11.7568  11.8951  11.8951
    12.3081  12.3081  14.8888  14.8888  15.0074  15.0074  17.6111  17.6111
    17.9372  17.9372  18.2496  18.2496  19.2643  19.2643

     occupation numbers 
     1.0000   1.0000   1.0000   1.0000   1.0000   1.0000   1.0000   1.0000
     1.0000   1.0000   1.0000   1.0000   1.0000   1.0000   1.0000   1.0000
     1.0000   1.0000   1.0000   1.0000   1.0000   1.0000   1.0000   1.0000
     1.0000   1.0000   1.0000   1.0000   1.0000   1.0000   1.0000   1.0000
     1.0000   1.0000   1.0000   1.0000   1.0000   1.0000   1.0000   1.0000
     1.0000   1.0000   1.0000   1.0000   1.0000   1.0000   1.0000   1.0000
     1.0000   1.0000   1.0000   1.0000   1.0000   1.0000   1.0000   1.0000
     1.0000   1.0000  -0.0000  -0.0000  -0.0000  -0.0000  -0.0000  -0.0000
    -0.0000  -0.0000  -0.0000  -0.0000  -0.0000  -0.0000

          k = 0.0000 0.1429 0.2035 (  5372 PWs)   bands (ev):

   -79.3841 -79.3841 -79.3830 -79.3830 -46.2282 -46.2282 -46.2195 -46.2195
   -32.7711 -32.7711 -32.7634 -32.7634 -32.6308 -32.6308 -32.6142 -32.6142
    -6.8189  -6.8189  -5.8106  -5.8106  -5.1508  -5.1508  -4.9838  -4.9838
     4.7059   4.7059   4.8532   4.8532   6.1909   6.1909   6.2526   6.2526
     6.6334   6.6334   7.9974   7.9974   8.7178   8.7178   8.9873   8.9873
     9.2474   9.2474  10.0115  10.0115  10.0565  10.0565  11.3823  11.3823
    11.3996  11.3996  11.9498  11.9498  12.0402  12.0402  12.4601  12.4601
    12.7044  12.7044  14.7388  14.7388  15.3478  15.3478  17.0804  17.0804
    17.4039  17.4039  18.7344  18.7344  19.0805  19.0805

     occupation numbers 
     1.0000   1.0000   1.0000   1.0000   1.0000   1.0000   1.0000   1.0000
     1.0000   1.0000   1.0000   1.0000   1.0000   1.0000   1.0000   1.0000
     1.0000   1.0000   1.0000   1.0000   1.0000   1.0000   1.0000   1.0000
     1.0000   1.0000   1.0000   1.0000   1.0000   1.0000   1.0000   1.0000
     1.0000   1.0000   1.0000   1.0000   1.0000   1.0000   1.0000   1.0000
     1.0000   1.0000   1.0000   1.0000   1.0000   1.0000   1.0000   1.0000
     1.0000   1.0000   1.0000   1.0000   1.0000   1.0000   1.0000   1.0000
     1.0000   1.0000  -0.0000  -0.0000  -0.0000  -0.0000  -0.0000  -0.0000
    -0.0000  -0.0000  -0.0000  -0.0000  -0.0000  -0.0000

          k = 0.0000 0.1429 0.4071 (  5385 PWs)   bands (ev):

   -79.3830 -79.3830 -79.3822 -79.3822 -46.2316 -46.2316 -46.2255 -46.2255
   -32.7947 -32.7947 -32.7830 -32.7830 -32.6405 -32.6405 -32.6213 -32.6213
    -6.3733  -6.3733  -5.6387  -5.6387  -5.3092  -5.3092  -5.2047  -5.2047
     5.2736   5.2736   5.3451   5.3451   6.4497   6.4497   6.5820   6.5820
     6.9730   6.9730   7.2829   7.2829   7.6783   7.6783   8.9607   8.9607
     9.1660   9.1660   9.4371   9.4371   9.6091   9.6091  10.5207  10.5207
    11.7633  11.7633  12.0627  12.0627  12.2925  12.2925  13.2145  13.2145
    13.4668  13.4668  14.3294  14.3294  15.9336  15.9336  16.2495  16.2495
    16.7349  16.7349  18.0194  18.0194  20.4465  20.4465

     occupation numbers 
     1.0000   1.0000   1.0000   1.0000   1.0000   1.0000   1.0000   1.0000
     1.0000   1.0000   1.0000   1.0000   1.0000   1.0000   1.0000   1.0000
     1.0000   1.0000   1.0000   1.0000   1.0000   1.0000   1.0000   1.0000
     1.0000   1.0000   1.0000   1.0000   1.0000   1.0000   1.0000   1.0000
     1.0000   1.0000   1.0000   1.0000   1.0000   1.0000   1.0000   1.0000
     1.0000   1.0000   1.0000   1.0000   1.0000   1.0000   1.0000   1.0000
     1.0000   1.0000   1.0000   1.0000   1.0000   1.0000   1.0000   1.0000
     1.0000   1.0000  -0.0000  -0.0000  -0.0000  -0.0000  -0.0000  -0.0000
    -0.0000  -0.0000  -0.0000  -0.0000  -0.0000  -0.0000

          k = 0.0000 0.1429 0.6106 (  5364 PWs)   bands (ev):

   -79.3819 -79.3819 -79.3817 -79.3817 -46.2335 -46.2335 -46.2312 -46.2312
   -32.8165 -32.8165 -32.8030 -32.8030 -32.6396 -32.6396 -32.6280 -32.6280
    -5.9064  -5.9064  -5.6626  -5.6626  -5.4073  -5.4073  -5.3206  -5.3206
     5.6382   5.6382   5.8460   5.8460   6.1521   6.1521   6.5918   6.5918
     7.2952   7.2952   7.3220   7.3220   8.1468   8.1468   8.3085   8.3085
     8.5047   8.5047   9.3214   9.3214   9.7625   9.7625   9.8432   9.8432
    11.8454  11.8454  12.0398  12.0398  12.4932  12.4932  13.1761  13.1761
    13.9742  13.9742  14.2649  14.2649  15.6985  15.6985  15.8097  15.8097
    16.9213  16.9213  17.3644  17.3644  22.1556  22.1556

     occupation numbers 
     1.0000   1.0000   1.0000   1.0000   1.0000   1.0000   1.0000   1.0000
     1.0000   1.0000   1.0000   1.0000   1.0000   1.0000   1.0000   1.0000
     1.0000   1.0000   1.0000   1.0000   1.0000   1.0000   1.0000   1.0000
     1.0000   1.0000   1.0000   1.0000   1.0000   1.0000   1.0000   1.0000
     1.0000   1.0000   1.0000   1.0000   1.0000   1.0000   1.0000   1.0000
     1.0000   1.0000   1.0000   1.0000   1.0000   1.0000   1.0000   1.0000
     1.0000   1.0000   1.0000   1.0000   1.0000   1.0000   1.0000   1.0000
    -0.0354  -0.0354  -0.0000  -0.0000  -0.0000  -0.0000  -0.0000  -0.0000
    -0.0000  -0.0000  -0.0000  -0.0000  -0.0000  -0.0000

          k = 0.0000 0.2857 0.0000 (  5376 PWs)   bands (ev):

   -79.3844 -79.3844 -79.3836 -79.3836 -46.2251 -46.2251 -46.2184 -46.2184
   -32.7617 -32.7617 -32.7546 -32.7546 -32.6227 -32.6227 -32.6141 -32.6141
    -6.7782  -6.7782  -5.9281  -5.9281  -5.2330  -5.2330  -5.0380  -5.0380
     4.9678   4.9678   5.0704   5.0704   6.1312   6.1312   6.2027   6.2027
     6.7685   6.7685   7.9943   7.9943   8.1673   8.1673   8.6453   8.6453
     9.3426   9.3426   9.4147   9.4147  10.6044  10.6044  11.2917  11.2917
    11.7925  11.7925  11.9021  11.9021  12.1282  12.1282  12.3023  12.3023
    12.7661  12.7661  14.4930  14.4930  15.8299  15.8299  17.4205  17.4205
    17.6800  17.6800  18.7260  18.7260  19.1516  19.1516

     occupation numbers 
     1.0000   1.0000   1.0000   1.0000   1.0000   1.0000   1.0000   1.0000
     1.0000   1.0000   1.0000   1.0000   1.0000   1.0000   1.0000   1.0000
     1.0000   1.0000   1.0000   1.0000   1.0000   1.0000   1.0000   1.0000
     1.0000   1.0000   1.0000   1.0000   1.0000   1.0000   1.0000   1.0000
     1.0000   1.0000   1.0000   1.0000   1.0000   1.0000   1.0000   1.0000
     1.0000   1.0000   1.0000   1.0000   1.0000   1.0000   1.0000   1.0000
     1.0000   1.0000   1.0000   1.0000   1.0000   1.0000   1.0000   1.0000
     1.0000   1.0000  -0.0000  -0.0000  -0.0000  -0.0000  -0.0000  -0.0000
    -0.0000  -0.0000  -0.0000  -0.0000  -0.0000  -0.0000

          k = 0.0000 0.2857 0.2035 (  5371 PWs)   bands (ev):

   -79.3839 -79.3839 -79.3832 -79.3832 -46.2269 -46.2269 -46.2208 -46.2208
   -32.7722 -32.7722 -32.7603 -32.7603 -32.6306 -32.6306 -32.6170 -32.6170
    -6.6126  -6.6126  -5.8072  -5.8072  -5.3172  -5.3172  -5.1263  -5.1263
     5.1497   5.1497   5.2594   5.2594   6.2247   6.2247   6.2708   6.2708
     7.0070   7.0070   7.8737   7.8737   8.1245   8.1245   8.3333   8.3333
     8.5537   8.5537   9.6364   9.6364  10.3202  10.3202  11.1125  11.1125
    11.7490  11.7490  12.1814  12.1814  12.3270  12.3270  12.6076  12.6076
    13.0302  13.0302  14.3648  14.3648  16.0307  16.0307  16.7952  16.7952
    17.1644  17.1644  18.5945  18.5945  19.7405  19.7405

     occupation numbers 
     1.0000   1.0000   1.0000   1.0000   1.0000   1.0000   1.0000   1.0000
     1.0000   1.0000   1.0000   1.0000   1.0000   1.0000   1.0000   1.0000
     1.0000   1.0000   1.0000   1.0000   1.0000   1.0000   1.0000   1.0000
     1.0000   1.0000   1.0000   1.0000   1.0000   1.0000   1.0000   1.0000
     1.0000   1.0000   1.0000   1.0000   1.0000   1.0000   1.0000   1.0000
     1.0000   1.0000   1.0000   1.0000   1.0000   1.0000   1.0000   1.0000
     1.0000   1.0000   1.0000   1.0000   1.0000   1.0000   1.0000   1.0000
     1.0000   1.0000  -0.0000  -0.0000  -0.0000  -0.0000  -0.0000  -0.0000
    -0.0000  -0.0000  -0.0000  -0.0000  -0.0000  -0.0000

          k = 0.0000 0.2857 0.4071 (  5376 PWs)   bands (ev):

   -79.3828 -79.3828 -79.3823 -79.3823 -46.2307 -46.2307 -46.2264 -46.2264
   -32.7987 -32.7987 -32.7784 -32.7784 -32.6405 -32.6405 -32.6223 -32.6223
    -6.2183  -6.2183  -5.6010  -5.6010  -5.4595  -5.4595  -5.2888  -5.2888
     5.5487   5.5487   5.6412   5.6412   6.3479   6.3479   6.5810   6.5810
     6.9327   6.9327   7.1382   7.1382   7.7600   7.7600   8.5827   8.5827
     8.9592   8.9592   9.3333   9.3333   9.7051   9.7051  10.8917  10.8917
    11.3702  11.3702  12.3177  12.3177  12.4454  12.4454  12.9127  12.9127
    13.6000  13.6000  14.2091  14.2091  15.7739  15.7739  15.9608  15.9608
    17.0423  17.0423  18.2825  18.2825  20.9681  20.9681

     occupation numbers 
     1.0000   1.0000   1.0000   1.0000   1.0000   1.0000   1.0000   1.0000
     1.0000   1.0000   1.0000   1.0000   1.0000   1.0000   1.0000   1.0000
     1.0000   1.0000   1.0000   1.0000   1.0000   1.0000   1.0000   1.0000
     1.0000   1.0000   1.0000   1.0000   1.0000   1.0000   1.0000   1.0000
     1.0000   1.0000   1.0000   1.0000   1.0000   1.0000   1.0000   1.0000
     1.0000   1.0000   1.0000   1.0000   1.0000   1.0000   1.0000   1.0000
     1.0000   1.0000   1.0000   1.0000   1.0000   1.0000   1.0000   1.0000
     1.0000   1.0000  -0.0000  -0.0000  -0.0000  -0.0000  -0.0000  -0.0000
    -0.0000  -0.0000  -0.0000  -0.0000  -0.0000  -0.0000

          k = 0.0000 0.2857 0.6106 (  5363 PWs)   bands (ev):

   -79.3819 -79.3819 -79.3817 -79.3817 -46.2334 -46.2334 -46.2313 -46.2313
   -32.8218 -32.8218 -32.7979 -32.7979 -32.6420 -32.6420 -32.6256 -32.6256
    -5.8807  -5.8807  -5.7232  -5.7232  -5.4108  -5.4108  -5.2733  -5.2733
     5.6628   5.6628   5.7620   5.7620   6.0219   6.0219   6.2782   6.2782
     7.3780   7.3780   7.7142   7.7142   8.0781   8.0781   8.6016   8.6016
     8.9649   8.9649   9.3059   9.3059   9.5704   9.5704  10.0278  10.0278
    11.7256  11.7256  11.9942  11.9942  12.0931  12.0931  12.6408  12.6408
    14.0417  14.0417  14.3992  14.3992  15.2689  15.2689  15.4249  15.4249
    17.5735  17.5735  17.9992  17.9992  22.3686  22.3686

     occupation numbers 
     1.0000   1.0000   1.0000   1.0000   1.0000   1.0000   1.0000   1.0000
     1.0000   1.0000   1.0000   1.0000   1.0000   1.0000   1.0000   1.0000
     1.0000   1.0000   1.0000   1.0000   1.0000   1.0000   1.0000   1.0000
     1.0000   1.0000   1.0000   1.0000   1.0000   1.0000   1.0000   1.0000
     1.0000   1.0000   1.0000   1.0000   1.0000   1.0000   1.0000   1.0000
     1.0000   1.0000   1.0000   1.0000   1.0000   1.0000   1.0000   1.0000
     1.0000   1.0000   1.0000   1.0000   1.0000   1.0000   1.0000   1.0000
    -0.0036  -0.0036  -0.0000  -0.0000  -0.0000  -0.0000  -0.0000  -0.0000
    -0.0000  -0.0000  -0.0000  -0.0000  -0.0000  -0.0000

          k = 0.0000 0.4286 0.0000 (  5372 PWs)   bands (ev):

   -79.3842 -79.3842 -79.3839 -79.3839 -46.2229 -46.2229 -46.2206 -46.2206
   -32.7583 -32.7583 -32.7558 -32.7558 -32.6212 -32.6212 -32.6182 -32.6182
    -6.4558  -6.4558  -6.1178  -6.1178  -5.2998  -5.2998  -5.1995  -5.1995
     5.5067   5.5067   5.5545   5.5545   6.2133   6.2133   6.2376   6.2376
     7.2453   7.2453   7.4571   7.4571   7.5611   7.5611   8.3410   8.3410
     8.6752   8.6752   8.9276   8.9276  10.7110  10.7110  10.9742  10.9742
    12.0569  12.0569  12.1296  12.1296  12.4107  12.4107  12.5236  12.5236
    13.3336  13.3336  13.9366  13.9366  16.8449  16.8449  17.2841  17.2841
    17.4455  17.4455  17.9253  17.9253  20.2425  20.2425

     occupation numbers 
     1.0000   1.0000   1.0000   1.0000   1.0000   1.0000   1.0000   1.0000
     1.0000   1.0000   1.0000   1.0000   1.0000   1.0000   1.0000   1.0000
     1.0000   1.0000   1.0000   1.0000   1.0000   1.0000   1.0000   1.0000
     1.0000   1.0000   1.0000   1.0000   1.0000   1.0000   1.0000   1.0000
     1.0000   1.0000   1.0000   1.0000   1.0000   1.0000   1.0000   1.0000
     1.0000   1.0000   1.0000   1.0000   1.0000   1.0000   1.0000   1.0000
     1.0000   1.0000   1.0000   1.0000   1.0000   1.0000   1.0000   1.0000
     1.0000   1.0000   0.0475   0.0475  -0.0000  -0.0000  -0.0000  -0.0000
    -0.0000  -0.0000  -0.0000  -0.0000  -0.0000  -0.0000

          k = 0.0000 0.4286 0.2035 (  5368 PWs)   bands (ev):

   -79.3837 -79.3837 -79.3834 -79.3834 -46.2250 -46.2250 -46.2227 -46.2227
   -32.7726 -32.7726 -32.7582 -32.7582 -32.6300 -32.6300 -32.6195 -32.6195
    -6.3074  -6.3074  -5.9793  -5.9793  -5.3812  -5.3812  -5.2726  -5.2726
     5.6727   5.6727   5.7853   5.7853   6.1842   6.1842   6.2452   6.2452
     7.3336   7.3336   7.6255   7.6255   7.7484   7.7484   7.8555   7.8555
     8.2059   8.2059   8.9031   8.9031  10.6519  10.6519  10.9080  10.9080
    12.0103  12.0103  12.1359  12.1359  12.6507  12.6507  12.8344  12.8344
    13.3799  13.3799  13.9063  13.9063  16.4829  16.4829  16.6889  16.6889
    17.2555  17.2555  17.9756  17.9756  20.7811  20.7811

     occupation numbers 
     1.0000   1.0000   1.0000   1.0000   1.0000   1.0000   1.0000   1.0000
     1.0000   1.0000   1.0000   1.0000   1.0000   1.0000   1.0000   1.0000
     1.0000   1.0000   1.0000   1.0000   1.0000   1.0000   1.0000   1.0000
     1.0000   1.0000   1.0000   1.0000   1.0000   1.0000   1.0000   1.0000
     1.0000   1.0000   1.0000   1.0000   1.0000   1.0000   1.0000   1.0000
     1.0000   1.0000   1.0000   1.0000   1.0000   1.0000   1.0000   1.0000
     1.0000   1.0000   1.0000   1.0000   1.0000   1.0000   1.0000   1.0000
     1.0000   1.0000   0.3079   0.3079  -0.0000  -0.0000  -0.0000  -0.0000
    -0.0000  -0.0000  -0.0000  -0.0000  -0.0000  -0.0000

          k = 0.0000 0.4286 0.4071 (  5375 PWs)   bands (ev):

   -79.3827 -79.3827 -79.3825 -79.3825 -46.2296 -46.2296 -46.2275 -46.2275
   -32.8009 -32.8009 -32.7757 -32.7757 -32.6404 -32.6404 -32.6231 -32.6231
    -5.9891  -5.9891  -5.7295  -5.7295  -5.5090  -5.5090  -5.3731  -5.3731
     5.9001   5.9001   5.9766   5.9766   6.3342   6.3342   6.5356   6.5356
     6.6556   6.6556   6.8920   6.8920   8.0978   8.0978   8.3502   8.3502
     8.6565   8.6565   9.0918   9.0918  10.1219  10.1219  10.5716  10.5716
    11.6963  11.6963  12.1701  12.1701  12.5401  12.5401  12.8338  12.8338
    13.6827  13.6827  14.1315  14.1315  15.5635  15.5635  15.7103  15.7103
    17.6368  17.6368  18.1363  18.1363  21.7766  21.7766

     occupation numbers 
     1.0000   1.0000   1.0000   1.0000   1.0000   1.0000   1.0000   1.0000
     1.0000   1.0000   1.0000   1.0000   1.0000   1.0000   1.0000   1.0000
     1.0000   1.0000   1.0000   1.0000   1.0000   1.0000   1.0000   1.0000
     1.0000   1.0000   1.0000   1.0000   1.0000   1.0000   1.0000   1.0000
     1.0000   1.0000   1.0000   1.0000   1.0000   1.0000   1.0000   1.0000
     1.0000   1.0000   1.0000   1.0000   1.0000   1.0000   1.0000   1.0000
     1.0000   1.0000   1.0000   1.0000   1.0000   1.0000   1.0000   1.0000
     1.0001   1.0001  -0.0000  -0.0000  -0.0000  -0.0000  -0.0000  -0.0000
    -0.0000  -0.0000  -0.0000  -0.0000  -0.0000  -0.0000

          k = 0.0000 0.4286 0.6106 (  5366 PWs)   bands (ev):

   -79.3818 -79.3818 -79.3818 -79.3818 -46.2334 -46.2334 -46.2314 -46.2314
   -32.8248 -32.8248 -32.7951 -32.7951 -32.6435 -32.6435 -32.6241 -32.6241
    -5.8409  -5.8409  -5.7875  -5.7875  -5.4049  -5.4049  -5.2476  -5.2476
     5.5609   5.5609   5.6174   5.6174   6.1518   6.1518   6.2127   6.2127
     7.3904   7.3904   7.8470   7.8470   8.2567   8.2567   8.7368   8.7368
     8.8820   8.8820   9.0736   9.0736  10.0410  10.0410  10.6334  10.6334
    11.1289  11.1289  11.6094  11.6094  12.0149  12.0149  12.3556  12.3556
    14.0959  14.0959  14.4589  14.4589  15.0811  15.0811  15.1622  15.1622
    18.0839  18.0839  18.3163  18.3163  22.7568  22.7569

     occupation numbers 
     1.0000   1.0000   1.0000   1.0000   1.0000   1.0000   1.0000   1.0000
     1.0000   1.0000   1.0000   1.0000   1.0000   1.0000   1.0000   1.0000
     1.0000   1.0000   1.0000   1.0000   1.0000   1.0000   1.0000   1.0000
     1.0000   1.0000   1.0000   1.0000   1.0000   1.0000   1.0000   1.0000
     1.0000   1.0000   1.0000   1.0000   1.0000   1.0000   1.0000   1.0000
     1.0000   1.0000   1.0000   1.0000   1.0000   1.0000   1.0000   1.0000
     1.0000   1.0000   1.0000   1.0000   1.0000   1.0000   1.0000   1.0000
    -0.0001  -0.0001  -0.0000  -0.0000  -0.0000  -0.0000  -0.0000  -0.0000
    -0.0000  -0.0000  -0.0000  -0.0000  -0.0000  -0.0000

          k = 0.1429 0.1429 0.0000 (  5363 PWs)   bands (ev):

   -79.3845 -79.3845 -79.3835 -79.3835 -46.2261 -46.2261 -46.2174 -46.2174
   -32.7638 -32.7638 -32.7545 -32.7545 -32.6230 -32.6230 -32.6116 -32.6116
    -6.9303  -6.9303  -5.9068  -5.9068  -5.1565  -5.1565  -4.8977  -4.8977
     4.3874   4.3874   5.0335   5.0335   6.0605   6.0605   6.1925   6.1925
     6.5100   6.5100   8.0747   8.0747   8.6587   8.6587   9.0219   9.0219
     9.8653   9.8653  10.2984  10.2984  10.4729  10.4729  11.1540  11.1540
    11.4540  11.4540  11.6167  11.6167  11.9627  11.9627  12.1317  12.1317
    12.5380  12.5380  14.8014  14.8014  15.1455  15.1455  17.4942  17.4942
    17.9218  17.9218  18.6268  18.6268  19.0709  19.0709

     occupation numbers 
     1.0000   1.0000   1.0000   1.0000   1.0000   1.0000   1.0000   1.0000
     1.0000   1.0000   1.0000   1.0000   1.0000   1.0000   1.0000   1.0000
     1.0000   1.0000   1.0000   1.0000   1.0000   1.0000   1.0000   1.0000
     1.0000   1.0000   1.0000   1.0000   1.0000   1.0000   1.0000   1.0000
     1.0000   1.0000   1.0000   1.0000   1.0000   1.0000   1.0000   1.0000
     1.0000   1.0000   1.0000   1.0000   1.0000   1.0000   1.0000   1.0000
     1.0000   1.0000   1.0000   1.0000   1.0000   1.0000   1.0000   1.0000
     1.0000   1.0000  -0.0000  -0.0000  -0.0000  -0.0000  -0.0000  -0.0000
    -0.0000  -0.0000  -0.0000  -0.0000  -0.0000  -0.0000

          k = 0.1429 0.1429 0.2035 (  5369 PWs)   bands (ev):

   -79.3841 -79.3841 -79.3831 -79.3831 -46.2278 -46.2278 -46.2199 -46.2199
   -32.7715 -32.7715 -32.7624 -32.7624 -32.6307 -32.6307 -32.6151 -32.6151
    -6.7558  -6.7558  -5.8011  -5.8011  -5.2364  -5.2364  -5.0007  -5.0007
     4.6161   4.6161   5.2137   5.2137   6.1320   6.1320   6.3162   6.3162
     6.7723   6.7723   7.8472   7.8472   8.3613   8.3613   8.8735   8.8735
     9.1895   9.1895   9.9503   9.9503  10.2590  10.2590  11.1835  11.1835
    11.4623  11.4623  11.7861  11.7861  12.2344  12.2344  12.5505  12.5505
    12.8921  12.8921  14.6317  14.6317  15.5031  15.5031  16.8819  16.8819
    17.4335  17.4335  18.7895  18.7895  19.2490  19.2490

     occupation numbers 
     1.0000   1.0000   1.0000   1.0000   1.0000   1.0000   1.0000   1.0000
     1.0000   1.0000   1.0000   1.0000   1.0000   1.0000   1.0000   1.0000
     1.0000   1.0000   1.0000   1.0000   1.0000   1.0000   1.0000   1.0000
     1.0000   1.0000   1.0000   1.0000   1.0000   1.0000   1.0000   1.0000
     1.0000   1.0000   1.0000   1.0000   1.0000   1.0000   1.0000   1.0000
     1.0000   1.0000   1.0000   1.0000   1.0000   1.0000   1.0000   1.0000
     1.0000   1.0000   1.0000   1.0000   1.0000   1.0000   1.0000   1.0000
     1.0000   1.0000  -0.0000  -0.0000  -0.0000  -0.0000  -0.0000  -0.0000
    -0.0000  -0.0000  -0.0000  -0.0000  -0.0000  -0.0000

          k = 0.1429 0.1429 0.4071 (  5373 PWs)   bands (ev):

   -79.3829 -79.3829 -79.3823 -79.3823 -46.2313 -46.2313 -46.2258 -46.2258
   -32.7961 -32.7961 -32.7815 -32.7815 -32.6403 -32.6403 -32.6218 -32.6218
    -6.3247  -6.3247  -5.6233  -5.6233  -5.3723  -5.3723  -5.2175  -5.2175
     5.1939   5.1939   5.6021   5.6021   6.3603   6.3603   6.5668   6.5668
     6.9641   6.9641   7.4216   7.4216   7.6046   7.6046   8.7497   8.7497
     8.9929   8.9929   9.5811   9.5811   9.6789   9.6789  10.6862  10.6862
    11.5970  11.5970  12.0194  12.0194  12.4328  12.4328  13.1367  13.1367
    13.4849  13.4849  14.2975  14.2975  15.8144  15.8144  16.2783  16.2783
    16.7413  16.7413  18.1360  18.1360  20.6220  20.6220

     occupation numbers 
     1.0000   1.0000   1.0000   1.0000   1.0000   1.0000   1.0000   1.0000
     1.0000   1.0000   1.0000   1.0000   1.0000   1.0000   1.0000   1.0000
     1.0000   1.0000   1.0000   1.0000   1.0000   1.0000   1.0000   1.0000
     1.0000   1.0000   1.0000   1.0000   1.0000   1.0000   1.0000   1.0000
     1.0000   1.0000   1.0000   1.0000   1.0000   1.0000   1.0000   1.0000
     1.0000   1.0000   1.0000   1.0000   1.0000   1.0000   1.0000   1.0000
     1.0000   1.0000   1.0000   1.0000   1.0000   1.0000   1.0000   1.0000
     1.0000   1.0000  -0.0000  -0.0000  -0.0000  -0.0000  -0.0000  -0.0000
    -0.0000  -0.0000  -0.0000  -0.0000  -0.0000  -0.0000

          k = 0.1429 0.1429 0.6106 (  5371 PWs)   bands (ev):

   -79.3819 -79.3819 -79.3817 -79.3817 -46.2335 -46.2335 -46.2313 -46.2313
   -32.8183 -32.8183 -32.8013 -32.8013 -32.6403 -32.6403 -32.6273 -32.6273
    -5.8969  -5.8969  -5.6704  -5.6704  -5.4262  -5.4262  -5.2994  -5.2994
     5.6485   5.6485   5.8718   5.8718   6.0329   6.0329   6.6694   6.6694
     6.7859   6.7859   7.7582   7.7582   8.2294   8.2294   8.4179   8.4179
     8.6127   8.6127   9.3900   9.3900   9.5316   9.5316   9.9810   9.9810
    11.8474  11.8474  12.0240  12.0240  12.3234  12.3234  13.1827  13.1827
    13.7206  13.7206  14.4241  14.4241  15.2980  15.2980  16.1512  16.1512
    16.7611  16.7611  17.7251  17.7251  22.2181  22.2181

     occupation numbers 
     1.0000   1.0000   1.0000   1.0000   1.0000   1.0000   1.0000   1.0000
     1.0000   1.0000   1.0000   1.0000   1.0000   1.0000   1.0000   1.0000
     1.0000   1.0000   1.0000   1.0000   1.0000   1.0000   1.0000   1.0000
     1.0000   1.0000   1.0000   1.0000   1.0000   1.0000   1.0000   1.0000
     1.0000   1.0000   1.0000   1.0000   1.0000   1.0000   1.0000   1.0000
     1.0000   1.0000   1.0000   1.0000   1.0000   1.0000   1.0000   1.0000
     1.0000   1.0000   1.0000   1.0000   1.0000   1.0000   1.0000   1.0000
     1.0012   1.0012  -0.0000  -0.0000  -0.0000  -0.0000  -0.0000  -0.0000
    -0.0000  -0.0000  -0.0000  -0.0000  -0.0000  -0.0000

          k = 0.1429 0.2857 0.0000 (  5373 PWs)   bands (ev):

   -79.3844 -79.3844 -79.3836 -79.3836 -46.2248 -46.2248 -46.2187 -46.2187
   -32.7616 -32.7616 -32.7549 -32.7549 -32.6224 -32.6224 -32.6144 -32.6144
    -6.7405  -6.7405  -5.9554  -5.9554  -5.2869  -5.2869  -4.9923  -4.9923
     4.5656   4.5656   5.5520   5.5520   6.0844   6.0844   6.2387   6.2387
     6.8743   6.8743   7.4104   7.4104   8.5783   8.5783   8.7082   8.7082
     9.5097   9.5097   9.6355   9.6355  10.2846  10.2846  11.1732  11.1732
    11.4818  11.4818  11.8322  11.8322  12.1581  12.1581  12.4660  12.4660
    12.9509  12.9509  14.4675  14.4675  15.7392  15.7392  17.3400  17.3400
    17.7778  17.7778  18.5222  18.5222  19.5179  19.5179

     occupation numbers 
     1.0000   1.0000   1.0000   1.0000   1.0000   1.0000   1.0000   1.0000
     1.0000   1.0000   1.0000   1.0000   1.0000   1.0000   1.0000   1.0000
     1.0000   1.0000   1.0000   1.0000   1.0000   1.0000   1.0000   1.0000
     1.0000   1.0000   1.0000   1.0000   1.0000   1.0000   1.0000   1.0000
     1.0000   1.0000   1.0000   1.0000   1.0000   1.0000   1.0000   1.0000
     1.0000   1.0000   1.0000   1.0000   1.0000   1.0000   1.0000   1.0000
     1.0000   1.0000   1.0000   1.0000   1.0000   1.0000   1.0000   1.0000
     1.0000   1.0000  -0.0000  -0.0000  -0.0000  -0.0000  -0.0000  -0.0000
    -0.0000  -0.0000  -0.0000  -0.0000  -0.0000  -0.0000

          k = 0.1429 0.2857 0.2035 (  5380 PWs)   bands (ev):

   -79.3839 -79.3839 -79.3832 -79.3832 -46.2266 -46.2266 -46.2211 -46.2211
   -32.7721 -32.7721 -32.7605 -32.7605 -32.6301 -32.6301 -32.6175 -32.6175
    -6.5768  -6.5768  -5.8286  -5.8286  -5.3700  -5.3700  -5.0855  -5.0855
     4.7756   4.7756   5.7360   5.7360   6.1286   6.1286   6.2595   6.2595
     7.1263   7.1263   7.6646   7.6646   7.8525   7.8525   8.4809   8.4809
     9.0298   9.0298   9.6825   9.6825  10.2260  10.2260  10.9053  10.9053
    11.7084  11.7084  11.9635  11.9635  12.3375  12.3375  12.7560  12.7560
    13.1532  13.1532  14.3205  14.3205  15.9996  15.9996  16.6739  16.6739
    17.3118  17.3118  18.4387  18.4387  20.0397  20.0397

     occupation numbers 
     1.0000   1.0000   1.0000   1.0000   1.0000   1.0000   1.0000   1.0000
     1.0000   1.0000   1.0000   1.0000   1.0000   1.0000   1.0000   1.0000
     1.0000   1.0000   1.0000   1.0000   1.0000   1.0000   1.0000   1.0000
     1.0000   1.0000   1.0000   1.0000   1.0000   1.0000   1.0000   1.0000
     1.0000   1.0000   1.0000   1.0000   1.0000   1.0000   1.0000   1.0000
     1.0000   1.0000   1.0000   1.0000   1.0000   1.0000   1.0000   1.0000
     1.0000   1.0000   1.0000   1.0000   1.0000   1.0000   1.0000   1.0000
     1.0000   1.0000  -0.0000  -0.0000  -0.0000  -0.0000  -0.0000  -0.0000
    -0.0000  -0.0000  -0.0000  -0.0000  -0.0000  -0.0000

          k = 0.1429 0.2857 0.4071 (  5379 PWs)   bands (ev):

   -79.3828 -79.3828 -79.3824 -79.3824 -46.2305 -46.2305 -46.2266 -46.2266
   -32.7984 -32.7984 -32.7788 -32.7788 -32.6399 -32.6399 -32.6229 -32.6229
    -6.1877  -6.1877  -5.6014  -5.6014  -5.5030  -5.5030  -5.2722  -5.2722
     5.2933   5.2933   5.9512   5.9512   6.2748   6.2748   6.4727   6.4727
     6.7989   6.7989   7.4102   7.4102   7.8313   7.8313   8.3853   8.3853
     9.0631   9.0631   9.3533   9.3533   9.8120   9.8120  10.9134  10.9134
    11.3580  11.3580  12.1407  12.1407  12.5292  12.5292  12.9588  12.9588
    13.5502  13.5502  14.1776  14.1776  15.5969  15.5969  16.2373  16.2373
    16.9700  16.9700  18.2221  18.2221  21.1381  21.1381

     occupation numbers 
     1.0000   1.0000   1.0000   1.0000   1.0000   1.0000   1.0000   1.0000
     1.0000   1.0000   1.0000   1.0000   1.0000   1.0000   1.0000   1.0000
     1.0000   1.0000   1.0000   1.0000   1.0000   1.0000   1.0000   1.0000
     1.0000   1.0000   1.0000   1.0000   1.0000   1.0000   1.0000   1.0000
     1.0000   1.0000   1.0000   1.0000   1.0000   1.0000   1.0000   1.0000
     1.0000   1.0000   1.0000   1.0000   1.0000   1.0000   1.0000   1.0000
     1.0000   1.0000   1.0000   1.0000   1.0000   1.0000   1.0000   1.0000
     1.0000   1.0000  -0.0000  -0.0000  -0.0000  -0.0000  -0.0000  -0.0000
    -0.0000  -0.0000  -0.0000  -0.0000  -0.0000  -0.0000

          k = 0.1429 0.2857 0.6106 (  5363 PWs)   bands (ev):

   -79.3819 -79.3819 -79.3817 -79.3817 -46.2334 -46.2334 -46.2314 -46.2314
   -32.8214 -32.8214 -32.7983 -32.7983 -32.6417 -32.6417 -32.6260 -32.6260
    -5.8686  -5.8686  -5.7047  -5.7047  -5.4347  -5.4347  -5.2758  -5.2758
     5.6158   5.6158   5.7868   5.7868   6.0783   6.0783   6.2935   6.2935
     6.9469   6.9469   7.8572   7.8572   8.2375   8.2375   8.6960   8.6960
     8.8751   8.8751   9.2442   9.2442   9.6639   9.6639  10.2502  10.2502
    11.6286  11.6286  11.9723  11.9723  12.1346  12.1346  12.7629  12.7629
    13.7697  13.7697  14.4635  14.4635  15.0689  15.0689  15.8097  15.8097
    17.2857  17.2857  18.1140  18.1140  22.4137  22.4138

     occupation numbers 
     1.0000   1.0000   1.0000   1.0000   1.0000   1.0000   1.0000   1.0000
     1.0000   1.0000   1.0000   1.0000   1.0000   1.0000   1.0000   1.0000
     1.0000   1.0000   1.0000   1.0000   1.0000   1.0000   1.0000   1.0000
     1.0000   1.0000   1.0000   1.0000   1.0000   1.0000   1.0000   1.0000
     1.0000   1.0000   1.0000   1.0000   1.0000   1.0000   1.0000   1.0000
     1.0000   1.0000   1.0000   1.0000   1.0000   1.0000   1.0000   1.0000
     1.0000   1.0000   1.0000   1.0000   1.0000   1.0000   1.0000   1.0000
     1.0154   1.0154  -0.0000  -0.0000  -0.0000  -0.0000  -0.0000  -0.0000
    -0.0000  -0.0000  -0.0000  -0.0000  -0.0000  -0.0000

          k = 0.1429 0.4286 0.0000 (  5380 PWs)   bands (ev):

   -79.3841 -79.3841 -79.3839 -79.3839 -46.2228 -46.2228 -46.2207 -46.2207
   -32.7587 -32.7587 -32.7563 -32.7563 -32.6208 -32.6208 -32.6179 -32.6179
    -6.4620  -6.4620  -6.1615  -6.1615  -5.2754  -5.2754  -5.1428  -5.1428
     5.0120   5.0120   5.5298   5.5298   6.1423   6.1423   6.2177   6.2177
     7.3239   7.3239   7.5579   7.5579   8.0825   8.0825   8.5897   8.5897
     8.7964   8.7964   9.0877   9.0877  10.4559  10.4559  10.8028  10.8028
    11.8927  11.8927  12.0763  12.0763  12.2477  12.2477  12.4853  12.4853
    13.4586  13.4586  13.9944  13.9944  16.6250  16.6250  17.3382  17.3382
    17.4839  17.4839  17.7866  17.7866  20.5441  20.5442

     occupation numbers 
     1.0000   1.0000   1.0000   1.0000   1.0000   1.0000   1.0000   1.0000
     1.0000   1.0000   1.0000   1.0000   1.0000   1.0000   1.0000   1.0000
     1.0000   1.0000   1.0000   1.0000   1.0000   1.0000   1.0000   1.0000
     1.0000   1.0000   1.0000   1.0000   1.0000   1.0000   1.0000   1.0000
     1.0000   1.0000   1.0000   1.0000   1.0000   1.0000   1.0000   1.0000
     1.0000   1.0000   1.0000   1.0000   1.0000   1.0000   1.0000   1.0000
     1.0000   1.0000   1.0000   1.0000   1.0000   1.0000   1.0000   1.0000
     1.0000   1.0000  -0.0263  -0.0263  -0.0000  -0.0000  -0.0000  -0.0000
    -0.0000  -0.0000  -0.0000  -0.0000  -0.0000  -0.0000

          k = 0.1429 0.4286 0.2035 (  5377 PWs)   bands (ev):

   -79.3837 -79.3837 -79.3835 -79.3835 -46.2249 -46.2249 -46.2228 -46.2228
   -32.7723 -32.7723 -32.7592 -32.7592 -32.6292 -32.6292 -32.6197 -32.6197
    -6.3137  -6.3137  -6.0240  -6.0240  -5.3543  -5.3543  -5.2220  -5.2220
     5.1968   5.1968   5.7380   5.7380   6.1618   6.1618   6.1977   6.1977
     7.4870   7.4870   7.7191   7.7191   7.8694   7.8694   8.2740   8.2740
     8.4621   8.4621   8.9925   8.9925  10.4266  10.4266  10.6910  10.6910
    11.9723  11.9723  12.0926  12.0926  12.5351  12.5351  12.7927  12.7927
    13.4417  13.4417  13.9115  13.9115  16.4913  16.4913  16.7590  16.7590
    17.2287  17.2287  17.8200  17.8200  21.0082  21.0082

     occupation numbers 
     1.0000   1.0000   1.0000   1.0000   1.0000   1.0000   1.0000   1.0000
     1.0000   1.0000   1.0000   1.0000   1.0000   1.0000   1.0000   1.0000
     1.0000   1.0000   1.0000   1.0000   1.0000   1.0000   1.0000   1.0000
     1.0000   1.0000   1.0000   1.0000   1.0000   1.0000   1.0000   1.0000
     1.0000   1.0000   1.0000   1.0000   1.0000   1.0000   1.0000   1.0000
     1.0000   1.0000   1.0000   1.0000   1.0000   1.0000   1.0000   1.0000
     1.0000   1.0000   1.0000   1.0000   1.0000   1.0000   1.0000   1.0000
     1.0000   1.0000   0.2502   0.2502  -0.0000  -0.0000  -0.0000  -0.0000
    -0.0000  -0.0000  -0.0000  -0.0000  -0.0000  -0.0000

          k = 0.1429 0.4286 0.4071 (  5372 PWs)   bands (ev):

   -79.3827 -79.3827 -79.3825 -79.3825 -46.2295 -46.2295 -46.2276 -46.2276
   -32.7999 -32.7999 -32.7771 -32.7771 -32.6395 -32.6395 -32.6238 -32.6238
    -5.9879  -5.9879  -5.7633  -5.7633  -5.4827  -5.4827  -5.3520  -5.3520
     5.5754   5.5754   5.9250   5.9250   6.3078   6.3078   6.4513   6.4513
     6.7253   6.7253   7.0951   7.0951   8.2225   8.2225   8.5321   8.5321
     8.8205   8.8205   9.0703   9.0703  10.0493  10.0493  10.4834  10.4834
    11.7814  11.7814  12.1903  12.1903  12.4917  12.4917  12.7857  12.7857
    13.6272  13.6272  14.0493  14.0493  15.6224  15.6224  15.9243  15.9243
    17.5108  17.5108  18.0063  18.0063  21.8868  21.8868

     occupation numbers 
     1.0000   1.0000   1.0000   1.0000   1.0000   1.0000   1.0000   1.0000
     1.0000   1.0000   1.0000   1.0000   1.0000   1.0000   1.0000   1.0000
     1.0000   1.0000   1.0000   1.0000   1.0000   1.0000   1.0000   1.0000
     1.0000   1.0000   1.0000   1.0000   1.0000   1.0000   1.0000   1.0000
     1.0000   1.0000   1.0000   1.0000   1.0000   1.0000   1.0000   1.0000
     1.0000   1.0000   1.0000   1.0000   1.0000   1.0000   1.0000   1.0000
     1.0000   1.0000   1.0000   1.0000   1.0000   1.0000   1.0000   1.0000
     1.0000   1.0000  -0.0023  -0.0023  -0.0000  -0.0000  -0.0000  -0.0000
    -0.0000  -0.0000  -0.0000  -0.0000  -0.0000  -0.0000

          k = 0.1429 0.4286 0.6106 (  5362 PWs)   bands (ev):

   -79.3818 -79.3818 -79.3818 -79.3818 -46.2333 -46.2333 -46.2315 -46.2315
   -32.8234 -32.8234 -32.7965 -32.7965 -32.6427 -32.6427 -32.6251 -32.6251
    -5.8226  -5.8226  -5.7625  -5.7625  -5.4227  -5.4227  -5.2686  -5.2686
     5.5687   5.5687   5.6670   5.6670   6.1021   6.1021   6.1996   6.1996
     7.2366   7.2366   7.6697   7.6697   8.3121   8.3121   8.5535   8.5535
     9.0119   9.0119   9.3128   9.3128  10.0843  10.0843  10.6764  10.6764
    11.2377  11.2377  11.7670  11.7670  12.0196  12.0196  12.3759  12.3759
    13.9598  13.9598  14.3810  14.3810  15.1058  15.1058  15.3810  15.3810
    17.8735  17.8735  18.2134  18.2134  22.7803  22.7805

     occupation numbers 
     1.0000   1.0000   1.0000   1.0000   1.0000   1.0000   1.0000   1.0000
     1.0000   1.0000   1.0000   1.0000   1.0000   1.0000   1.0000   1.0000
     1.0000   1.0000   1.0000   1.0000   1.0000   1.0000   1.0000   1.0000
     1.0000   1.0000   1.0000   1.0000   1.0000   1.0000   1.0000   1.0000
     1.0000   1.0000   1.0000   1.0000   1.0000   1.0000   1.0000   1.0000
     1.0000   1.0000   1.0000   1.0000   1.0000   1.0000   1.0000   1.0000
     1.0000   1.0000   1.0000   1.0000   1.0000   1.0000   1.0000   1.0000
    -0.0271  -0.0271  -0.0000  -0.0000  -0.0000  -0.0000  -0.0000  -0.0000
    -0.0000  -0.0000  -0.0000  -0.0000  -0.0000  -0.0000

          k = 0.2857 0.2857 0.0000 (  5393 PWs)   bands (ev):

   -79.3843 -79.3843 -79.3838 -79.3838 -46.2239 -46.2239 -46.2197 -46.2197
   -32.7610 -32.7610 -32.7558 -32.7558 -32.6214 -32.6214 -32.6154 -32.6154
    -6.6316  -6.6316  -6.0703  -6.0703  -5.2898  -5.2898  -4.9802  -4.9802
     4.4016   4.4016   5.5372   5.5372   6.0430   6.0430   6.2147   6.2147
     7.1904   7.1904   7.4805   7.4805   8.7117   8.7117   8.8707   8.8707
     9.6303   9.6303   9.7194   9.7194   9.9543   9.9543  10.9152  10.9152
    11.1814  11.1814  11.6787  11.6787  12.1508  12.1508  12.4931  12.4931
    13.3365  13.3365  14.3398  14.3398  15.7999  15.7999  17.3690  17.3690
    17.6814  17.6814  18.0924  18.0924  20.3338  20.3338

     occupation numbers 
     1.0000   1.0000   1.0000   1.0000   1.0000   1.0000   1.0000   1.0000
     1.0000   1.0000   1.0000   1.0000   1.0000   1.0000   1.0000   1.0000
     1.0000   1.0000   1.0000   1.0000   1.0000   1.0000   1.0000   1.0000
     1.0000   1.0000   1.0000   1.0000   1.0000   1.0000   1.0000   1.0000
     1.0000   1.0000   1.0000   1.0000   1.0000   1.0000   1.0000   1.0000
     1.0000   1.0000   1.0000   1.0000   1.0000   1.0000   1.0000   1.0000
     1.0000   1.0000   1.0000   1.0000   1.0000   1.0000   1.0000   1.0000
     1.0000   1.0000  -0.0000  -0.0000  -0.0000  -0.0000  -0.0000  -0.0000
    -0.0000  -0.0000  -0.0000  -0.0000  -0.0000  -0.0000

          k = 0.2857 0.2857 0.2035 (  5386 PWs)   bands (ev):

   -79.3838 -79.3838 -79.3833 -79.3833 -46.2258 -46.2258 -46.2220 -46.2220
   -32.7717 -32.7717 -32.7612 -32.7612 -32.6288 -32.6288 -32.6188 -32.6188
    -6.4739  -6.4739  -5.9382  -5.9382  -5.3691  -5.3691  -5.0752  -5.0752
     4.6192   4.6192   5.7444   5.7444   6.0514   6.0514   6.1822   6.1822
     7.4749   7.4749   7.7289   7.7289   7.8993   7.8993   8.7642   8.7642
     9.0153   9.0153   9.8419   9.8419  10.0679  10.0679  10.4236  10.4236
    11.5888  11.5888  11.9419  11.9419  12.3177  12.3177  12.7800  12.7800
    13.3771  13.3771  14.1641  14.1641  16.0886  16.0886  16.6907  16.6907
    17.3853  17.3853  18.0242  18.0242  20.7414  20.7414

     occupation numbers 
     1.0000   1.0000   1.0000   1.0000   1.0000   1.0000   1.0000   1.0000
     1.0000   1.0000   1.0000   1.0000   1.0000   1.0000   1.0000   1.0000
     1.0000   1.0000   1.0000   1.0000   1.0000   1.0000   1.0000   1.0000
     1.0000   1.0000   1.0000   1.0000   1.0000   1.0000   1.0000   1.0000
     1.0000   1.0000   1.0000   1.0000   1.0000   1.0000   1.0000   1.0000
     1.0000   1.0000   1.0000   1.0000   1.0000   1.0000   1.0000   1.0000
     1.0000   1.0000   1.0000   1.0000   1.0000   1.0000   1.0000   1.0000
     1.0000   1.0000  -0.0000  -0.0000  -0.0000  -0.0000  -0.0000  -0.0000
    -0.0000  -0.0000  -0.0000  -0.0000  -0.0000  -0.0000

          k = 0.2857 0.2857 0.4071 (  5363 PWs)   bands (ev):

   -79.3828 -79.3828 -79.3824 -79.3824 -46.2300 -46.2300 -46.2272 -46.2272
   -32.7977 -32.7977 -32.7798 -32.7798 -32.6385 -32.6385 -32.6244 -32.6244
    -6.1023  -6.1023  -5.6892  -5.6892  -5.4908  -5.4908  -5.2750  -5.2750
     5.1736   5.1736   5.9200   5.9200   6.1704   6.1704   6.4760   6.4760
     6.6985   6.6985   7.6052   7.6052   8.1031   8.1031   8.4328   8.4328
     8.9990   8.9990   9.4916   9.4916   9.7961   9.7961  10.7295  10.7295
    11.5959  11.5959  12.0159  12.0159  12.5483  12.5483  12.9554  12.9554
    13.4426  13.4426  14.0488  14.0488  15.6162  15.6162  16.4898  16.4898
    16.9000  16.9000  18.0230  18.0230  21.5777  21.5777

     occupation numbers 
     1.0000   1.0000   1.0000   1.0000   1.0000   1.0000   1.0000   1.0000
     1.0000   1.0000   1.0000   1.0000   1.0000   1.0000   1.0000   1.0000
     1.0000   1.0000   1.0000   1.0000   1.0000   1.0000   1.0000   1.0000
     1.0000   1.0000   1.0000   1.0000   1.0000   1.0000   1.0000   1.0000
     1.0000   1.0000   1.0000   1.0000   1.0000   1.0000   1.0000   1.0000
     1.0000   1.0000   1.0000   1.0000   1.0000   1.0000   1.0000   1.0000
     1.0000   1.0000   1.0000   1.0000   1.0000   1.0000   1.0000   1.0000
     1.0000   1.0000  -0.0024  -0.0024  -0.0000  -0.0000  -0.0000  -0.0000
    -0.0000  -0.0000  -0.0000  -0.0000  -0.0000  -0.0000

          k = 0.2857 0.2857 0.6106 (  5351 PWs)   bands (ev):

   -79.3819 -79.3819 -79.3817 -79.3817 -46.2332 -46.2332 -46.2316 -46.2316
   -32.8205 -32.8205 -32.7994 -32.7994 -32.6411 -32.6411 -32.6269 -32.6269
    -5.8308  -5.8308  -5.6764  -5.6764  -5.4725  -5.4725  -5.2944  -5.2944
     5.5718   5.5718   5.7721   5.7721   6.1719   6.1719   6.3580   6.3580
     6.5324   6.5324   7.7926   7.7926   8.2837   8.2837   8.5131   8.5131
     9.0353   9.0353   9.6118   9.6118   9.7302   9.7302  10.6399  10.6399
    11.4671  11.4671  11.9602  11.9602  12.1484  12.1484  12.9391  12.9391
    13.3748  13.3748  14.3864  14.3864  15.0772  15.0772  16.1421  16.1421
    17.0121  17.0121  18.1170  18.1170  22.5542  22.5542

     occupation numbers 
     1.0000   1.0000   1.0000   1.0000   1.0000   1.0000   1.0000   1.0000
     1.0000   1.0000   1.0000   1.0000   1.0000   1.0000   1.0000   1.0000
     1.0000   1.0000   1.0000   1.0000   1.0000   1.0000   1.0000   1.0000
     1.0000   1.0000   1.0000   1.0000   1.0000   1.0000   1.0000   1.0000
     1.0000   1.0000   1.0000   1.0000   1.0000   1.0000   1.0000   1.0000
     1.0000   1.0000   1.0000   1.0000   1.0000   1.0000   1.0000   1.0000
     1.0000   1.0000   1.0000   1.0000   1.0000   1.0000   1.0000   1.0000
     1.0000   1.0000  -0.0000  -0.0000  -0.0000  -0.0000  -0.0000  -0.0000
    -0.0000  -0.0000  -0.0000  -0.0000  -0.0000  -0.0000

          k = 0.2857 0.4286 0.0000 (  5394 PWs)   bands (ev):

   -79.3841 -79.3841 -79.3839 -79.3839 -46.2225 -46.2225 -46.2210 -46.2210
   -32.7595 -32.7595 -32.7576 -32.7576 -32.6196 -32.6196 -32.6173 -32.6173
    -6.4644  -6.4644  -6.2623  -6.2623  -5.1868  -5.1868  -5.0573  -5.0573
     4.5661   4.5661   5.0100   5.0100   6.0562   6.0562   6.1243   6.1243
     7.7253   7.7253   8.0903   8.0903   8.6203   8.6203   8.9786   8.9786
     9.3144   9.3144   9.4224   9.4224   9.9601   9.9601  10.4582  10.4582
    11.4830  11.4830  11.7968  11.7968  12.0098  12.0098  12.2452  12.2452
    13.7311  13.7311  14.0830  14.0830  16.2735  16.2735  17.0005  17.0005
    17.6046  17.6046  17.8590  17.8590  21.2105  21.2105

     occupation numbers 
     1.0000   1.0000   1.0000   1.0000   1.0000   1.0000   1.0000   1.0000
     1.0000   1.0000   1.0000   1.0000   1.0000   1.0000   1.0000   1.0000
     1.0000   1.0000   1.0000   1.0000   1.0000   1.0000   1.0000   1.0000
     1.0000   1.0000   1.0000   1.0000   1.0000   1.0000   1.0000   1.0000
     1.0000   1.0000   1.0000   1.0000   1.0000   1.0000   1.0000   1.0000
     1.0000   1.0000   1.0000   1.0000   1.0000   1.0000   1.0000   1.0000
     1.0000   1.0000   1.0000   1.0000   1.0000   1.0000   1.0000   1.0000
     1.0023   1.0023  -0.0002  -0.0002  -0.0000  -0.0000  -0.0000  -0.0000
    -0.0000  -0.0000  -0.0000  -0.0000  -0.0000  -0.0000

          k = 0.2857 0.4286 0.2035 (  5387 PWs)   bands (ev):

   -79.3837 -79.3837 -79.3835 -79.3835 -46.2246 -46.2246 -46.2232 -46.2232
   -32.7712 -32.7712 -32.7620 -32.7620 -32.6272 -32.6272 -32.6205 -32.6205
    -6.3165  -6.3165  -6.1241  -6.1241  -5.2682  -5.2682  -5.1453  -5.1453
     4.7716   4.7716   5.1992   5.1992   6.0691   6.0691   6.1446   6.1446
     7.8993   7.8993   8.0756   8.0756   8.4386   8.4386   8.6001   8.6001
     8.9095   8.9095   9.4114   9.4114   9.9526   9.9526  10.1470  10.1470
    11.7887  11.7887  11.9936  11.9936  12.3326  12.3326  12.5488  12.5488
    13.6162  13.6162  13.9162  13.9162  16.4384  16.4384  16.8251  16.8251
    17.2839  17.2839  17.5544  17.5544  21.5441  21.5441

     occupation numbers 
     1.0000   1.0000   1.0000   1.0000   1.0000   1.0000   1.0000   1.0000
     1.0000   1.0000   1.0000   1.0000   1.0000   1.0000   1.0000   1.0000
     1.0000   1.0000   1.0000   1.0000   1.0000   1.0000   1.0000   1.0000
     1.0000   1.0000   1.0000   1.0000   1.0000   1.0000   1.0000   1.0000
     1.0000   1.0000   1.0000   1.0000   1.0000   1.0000   1.0000   1.0000
     1.0000   1.0000   1.0000   1.0000   1.0000   1.0000   1.0000   1.0000
     1.0000   1.0000   1.0000   1.0000   1.0000   1.0000   1.0000   1.0000
     1.0000   1.0000   0.2033   0.2033  -0.0000  -0.0000  -0.0000  -0.0000
    -0.0000  -0.0000  -0.0000  -0.0000  -0.0000  -0.0000

          k = 0.2857 0.4286 0.4071 (  5371 PWs)   bands (ev):

   -79.3826 -79.3826 -79.3825 -79.3825 -46.2293 -46.2293 -46.2279 -46.2279
   -32.7970 -32.7970 -32.7807 -32.7807 -32.6371 -32.6371 -32.6259 -32.6259
    -5.9783  -5.9783  -5.8331  -5.8331  -5.4212  -5.4212  -5.3195  -5.3195
     5.2708   5.2708   5.5657   5.5657   6.1628   6.1628   6.2925   6.2925
     7.0542   7.0542   7.4124   7.4124   8.5063   8.5063   8.7416   8.7416
     9.0513   9.0513   9.2253   9.2253   9.8769   9.8769  10.3039  10.3039
    11.9704  11.9704  12.1339  12.1339  12.4704  12.4704  12.7350  12.7350
    13.4727  13.4727  13.8413  13.8413  15.9034  15.9034  16.2921  16.2921
    17.2277  17.2277  17.6732  17.6732  22.1730  22.1731

     occupation numbers 
     1.0000   1.0000   1.0000   1.0000   1.0000   1.0000   1.0000   1.0000
     1.0000   1.0000   1.0000   1.0000   1.0000   1.0000   1.0000   1.0000
     1.0000   1.0000   1.0000   1.0000   1.0000   1.0000   1.0000   1.0000
     1.0000   1.0000   1.0000   1.0000   1.0000   1.0000   1.0000   1.0000
     1.0000   1.0000   1.0000   1.0000   1.0000   1.0000   1.0000   1.0000
     1.0000   1.0000   1.0000   1.0000   1.0000   1.0000   1.0000   1.0000
     1.0000   1.0000   1.0000   1.0000   1.0000   1.0000   1.0000   1.0000
     1.0000   1.0000   0.9669   0.9669  -0.0000  -0.0000  -0.0000  -0.0000
    -0.0000  -0.0000  -0.0000  -0.0000  -0.0000  -0.0000

          k = 0.2857 0.4286 0.6106 (  5360 PWs)   bands (ev):

   -79.3818 -79.3818 -79.3818 -79.3818 -46.2330 -46.2330 -46.2318 -46.2318
   -32.8196 -32.8196 -32.8003 -32.8003 -32.6404 -32.6404 -32.6278 -32.6278
    -5.7716  -5.7716  -5.7003  -5.7003  -5.4671  -5.4671  -5.3272  -5.3272
     5.5997   5.5997   5.7284   5.7284   6.0389   6.0389   6.2243   6.2243
     6.8814   6.8814   7.3858   7.3858   8.2757   8.2757   8.4160   8.4160
     9.3167   9.3167   9.5556   9.5556  10.2280  10.2280  10.6918  10.6918
    11.6138  11.6138  11.9507  11.9507  12.1020  12.1020  12.5356  12.5356
    13.6056  13.6056  14.1250  14.1250  15.3597  15.3597  15.8125  15.8125
    17.3982  17.3982  17.8746  17.8746  22.8397  22.8397

     occupation numbers 
     1.0000   1.0000   1.0000   1.0000   1.0000   1.0000   1.0000   1.0000
     1.0000   1.0000   1.0000   1.0000   1.0000   1.0000   1.0000   1.0000
     1.0000   1.0000   1.0000   1.0000   1.0000   1.0000   1.0000   1.0000
     1.0000   1.0000   1.0000   1.0000   1.0000   1.0000   1.0000   1.0000
     1.0000   1.0000   1.0000   1.0000   1.0000   1.0000   1.0000   1.0000
     1.0000   1.0000   1.0000   1.0000   1.0000   1.0000   1.0000   1.0000
     1.0000   1.0000   1.0000   1.0000   1.0000   1.0000   1.0000   1.0000
     1.0000   1.0000  -0.0000  -0.0000  -0.0000  -0.0000  -0.0000  -0.0000
    -0.0000  -0.0000  -0.0000  -0.0000  -0.0000  -0.0000

          k = 0.4286 0.4286 0.0000 (  5408 PWs)   bands (ev):

   -79.3840 -79.3840 -79.3840 -79.3840 -46.2221 -46.2221 -46.2215 -46.2215
   -32.7598 -32.7598 -32.7590 -32.7590 -32.6182 -32.6182 -32.6173 -32.6173
    -6.4361  -6.4361  -6.3655  -6.3655  -5.0824  -5.0824  -5.0290  -5.0290
     4.4006   4.4006   4.5647   4.5647   6.0155   6.0155   6.0424   6.0424
     8.2261   8.2261   8.6533   8.6533   8.7642   8.7642   9.1902   9.1902
     9.4564   9.4564   9.6000   9.6000   9.9708   9.9708  10.4220  10.4220
    11.1432  11.1432  11.4242  11.4242  11.7754  11.7754  11.9234  11.9234
    13.9620  13.9620  14.0831  14.0831  16.1845  16.1845  16.4688  16.4688
    17.8297  17.8297  17.9318  17.9318  21.9185  21.9185

     occupation numbers 
     1.0000   1.0000   1.0000   1.0000   1.0000   1.0000   1.0000   1.0000
     1.0000   1.0000   1.0000   1.0000   1.0000   1.0000   1.0000   1.0000
     1.0000   1.0000   1.0000   1.0000   1.0000   1.0000   1.0000   1.0000
     1.0000   1.0000   1.0000   1.0000   1.0000   1.0000   1.0000   1.0000
     1.0000   1.0000   1.0000   1.0000   1.0000   1.0000   1.0000   1.0000
     1.0000   1.0000   1.0000   1.0000   1.0000   1.0000   1.0000   1.0000
     1.0000   1.0000   1.0000   1.0000   1.0000   1.0000   1.0000   1.0000
    -0.0298  -0.0298  -0.0002  -0.0002  -0.0000  -0.0000  -0.0000  -0.0000
    -0.0000  -0.0000  -0.0000  -0.0000  -0.0000  -0.0000

          k = 0.4286 0.4286 0.2035 (  5394 PWs)   bands (ev):

   -79.3836 -79.3836 -79.3835 -79.3835 -46.2242 -46.2242 -46.2236 -46.2236
   -32.7695 -32.7695 -32.7650 -32.7650 -32.6248 -32.6248 -32.6217 -32.6217
    -6.2903  -6.2903  -6.2233  -6.2233  -5.1711  -5.1711  -5.1207  -5.1207
     4.6144   4.6144   4.7710   4.7710   6.0209   6.0209   6.0537   6.0537
     8.4094   8.4094   8.4878   8.4878   8.7463   8.7463   8.9145   8.9145
     9.1643   9.1643   9.4932   9.4932   9.6121   9.6121   9.8567   9.8567
    11.5963  11.5963  11.8161  11.8161  12.2132  12.2132  12.2921  12.2921
    13.7705  13.7705  13.8762  13.8762  16.4306  16.4306  16.6458  16.6458
    17.3934  17.3934  17.5058  17.5058  22.1735  22.1735

     occupation numbers 
     1.0000   1.0000   1.0000   1.0000   1.0000   1.0000   1.0000   1.0000
     1.0000   1.0000   1.0000   1.0000   1.0000   1.0000   1.0000   1.0000
     1.0000   1.0000   1.0000   1.0000   1.0000   1.0000   1.0000   1.0000
     1.0000   1.0000   1.0000   1.0000   1.0000   1.0000   1.0000   1.0000
     1.0000   1.0000   1.0000   1.0000   1.0000   1.0000   1.0000   1.0000
     1.0000   1.0000   1.0000   1.0000   1.0000   1.0000   1.0000   1.0000
     1.0000   1.0000   1.0000   1.0000   1.0000   1.0000   1.0000   1.0000
     1.0159   1.0159   0.6724   0.6724  -0.0000  -0.0000  -0.0000  -0.0000
    -0.0000  -0.0000  -0.0000  -0.0000  -0.0000  -0.0000

          k = 0.4286 0.4286 0.4071 (  5367 PWs)   bands (ev):

   -79.3826 -79.3826 -79.3826 -79.3826 -46.2289 -46.2289 -46.2283 -46.2283
   -32.7931 -32.7931 -32.7852 -32.7852 -32.6340 -32.6340 -32.6287 -32.6287
    -5.9511  -5.9511  -5.9011  -5.9011  -5.3583  -5.3583  -5.3143  -5.3143
     5.1521   5.1521   5.2643   5.2643   6.0991   6.0991   6.1474   6.1474
     7.3968   7.3968   7.5569   7.5569   8.6750   8.6750   8.8318   8.8318
     9.1906   9.1906   9.3222   9.3222   9.8914   9.8914  10.1578  10.1578
    11.9420  11.9420  12.0710  12.0710  12.5989  12.5989  12.8381  12.8381
    13.3286  13.3286  13.5708  13.5708  16.2780  16.2780  16.5207  16.5207
    17.0385  17.0385  17.2812  17.2812  22.5883  22.5884

     occupation numbers 
     1.0000   1.0000   1.0000   1.0000   1.0000   1.0000   1.0000   1.0000
     1.0000   1.0000   1.0000   1.0000   1.0000   1.0000   1.0000   1.0000
     1.0000   1.0000   1.0000   1.0000   1.0000   1.0000   1.0000   1.0000
     1.0000   1.0000   1.0000   1.0000   1.0000   1.0000   1.0000   1.0000
     1.0000   1.0000   1.0000   1.0000   1.0000   1.0000   1.0000   1.0000
     1.0000   1.0000   1.0000   1.0000   1.0000   1.0000   1.0000   1.0000
     1.0000   1.0000   1.0000   1.0000   1.0000   1.0000   1.0000   1.0000
     1.0000   1.0000   1.0000   1.0000  -0.0000  -0.0000  -0.0000  -0.0000
    -0.0000  -0.0000  -0.0000  -0.0000  -0.0000  -0.0000

          k = 0.4286 0.4286 0.6106 (  5363 PWs)   bands (ev):

   -79.3818 -79.3818 -79.3818 -79.3818 -46.2327 -46.2327 -46.2321 -46.2321
   -32.8146 -32.8146 -32.8053 -32.8053 -32.6373 -32.6373 -32.6312 -32.6312
    -5.7048  -5.7048  -5.6543  -5.6543  -5.4940  -5.4940  -5.4050  -5.4050
     5.6317   5.6317   5.6991   5.6991   6.0883   6.0883   6.2882   6.2882
     6.7114   6.7114   7.0020   7.0020   8.2932   8.2932   8.3675   8.3675
     9.5210   9.5210   9.6142   9.6142  10.4679  10.4679  10.6449  10.6449
    11.9143  11.9143  11.9621  11.9621  12.3588  12.3588  12.7676  12.7676
    13.3234  13.3234  13.7299  13.7299  15.8021  15.8021  16.1281  16.1281
    17.0457  17.0457  17.3797  17.3797  22.9627  22.9627

     occupation numbers 
     1.0000   1.0000   1.0000   1.0000   1.0000   1.0000   1.0000   1.0000
     1.0000   1.0000   1.0000   1.0000   1.0000   1.0000   1.0000   1.0000
     1.0000   1.0000   1.0000   1.0000   1.0000   1.0000   1.0000   1.0000
     1.0000   1.0000   1.0000   1.0000   1.0000   1.0000   1.0000   1.0000
     1.0000   1.0000   1.0000   1.0000   1.0000   1.0000   1.0000   1.0000
     1.0000   1.0000   1.0000   1.0000   1.0000   1.0000   1.0000   1.0000
     1.0000   1.0000   1.0000   1.0000   1.0000   1.0000   1.0000   1.0000
     1.0000   1.0000   1.0021   1.0021  -0.0000  -0.0000  -0.0000  -0.0000
    -0.0000  -0.0000  -0.0000  -0.0000  -0.0000  -0.0000

     the Fermi energy is    13.8904 ev

!    total energy              =    -553.08033726 Ry
     estimated scf accuracy    <          3.1E-11 Ry
     smearing contrib. (-TS)   =      -0.00005134 Ry
     internal energy E=F+TS    =    -553.08028592 Ry

     The total energy is F=E-TS. E is the sum of the following terms:
     one-electron contribution =    -190.90991814 Ry
     hartree contribution      =     122.73004117 Ry
     xc contribution           =     -69.91439843 Ry
     ewald contribution        =    -414.98601052 Ry

     convergence has been achieved in  10 iterations

     Forces acting on atoms (cartesian axes, Ry/au):

     atom    1 type  2   force =     0.00000000    0.00000000   -0.00000000
     atom    2 type  2   force =     0.00000000    0.00000000    0.00000000
     atom    3 type  1   force =     0.00046859   -0.00046859   -0.00000000
     atom    4 type  1   force =    -0.00046859   -0.00046859   -0.00000000
     atom    5 type  1   force =     0.00046859    0.00046859   -0.00000000
     atom    6 type  1   force =    -0.00046859    0.00046859   -0.00000000
     The non-local contrib.  to forces
     atom    1 type  2   force =     0.00000000    0.00000000    0.00000000
     atom    2 type  2   force =     0.00000000    0.00000000    0.00000000
     atom    3 type  1   force =    -0.05396442    0.05396442    0.00000000
     atom    4 type  1   force =     0.05396442    0.05396442    0.00000000
     atom    5 type  1   force =    -0.05396442   -0.05396442    0.00000000
     atom    6 type  1   force =     0.05396442   -0.05396442    0.00000000
     The ionic contribution  to forces
     atom    1 type  2   force =    -0.00000000   -0.00000000    0.00000000
     atom    2 type  2   force =     0.00000000    0.00000000   -0.00000000
     atom    3 type  1   force =     1.42937233   -1.42937233    0.00000000
     atom    4 type  1   force =    -1.42937233   -1.42937233   -0.00000000
     atom    5 type  1   force =     1.42937233    1.42937233   -0.00000000
     atom    6 type  1   force =    -1.42937233    1.42937233    0.00000000
     The local contribution  to forces
     atom    1 type  2   force =     0.00000000    0.00000000   -0.00000000
     atom    2 type  2   force =     0.00000000    0.00000000    0.00000000
     atom    3 type  1   force =    -1.37493900    1.37493900    0.00000000
     atom    4 type  1   force =     1.37493900    1.37493900   -0.00000000
     atom    5 type  1   force =    -1.37493900   -1.37493900   -0.00000000
     atom    6 type  1   force =     1.37493900   -1.37493900    0.00000000
     The core correction contribution to forces
     atom    1 type  2   force =     0.00000000    0.00000000    0.00000000
     atom    2 type  2   force =     0.00000000    0.00000000    0.00000000
     atom    3 type  1   force =     0.00000000    0.00000000    0.00000000
     atom    4 type  1   force =     0.00000000    0.00000000    0.00000000
     atom    5 type  1   force =     0.00000000    0.00000000    0.00000000
     atom    6 type  1   force =     0.00000000    0.00000000    0.00000000
     The Hubbard contrib.    to forces
     atom    1 type  2   force =     0.00000000    0.00000000    0.00000000
     atom    2 type  2   force =     0.00000000    0.00000000    0.00000000
     atom    3 type  1   force =     0.00000000    0.00000000    0.00000000
     atom    4 type  1   force =     0.00000000    0.00000000    0.00000000
     atom    5 type  1   force =     0.00000000    0.00000000    0.00000000
     atom    6 type  1   force =     0.00000000    0.00000000    0.00000000
     The SCF correction term to forces
     atom    1 type  2   force =    -0.00000000   -0.00000000    0.00000000
     atom    2 type  2   force =    -0.00000000   -0.00000000   -0.00000000
     atom    3 type  1   force =    -0.00000032    0.00000032    0.00000000
     atom    4 type  1   force =     0.00000032    0.00000032   -0.00000000
     atom    5 type  1   force =    -0.00000032   -0.00000032   -0.00000000
     atom    6 type  1   force =     0.00000032   -0.00000032    0.00000000

     Total force =     0.001325     Total SCF correction =     0.000001


     Computing stress (Cartesian axis) and pressure

          total   stress  (Ry/bohr**3)                   (kbar)     P=      -20.77
  -0.00012045   0.00000000   0.00000000          -17.72        0.00        0.00
   0.00000000  -0.00012045   0.00000000            0.00      -17.72        0.00
   0.00000000   0.00000000  -0.00018266            0.00        0.00      -26.87

     kinetic stress (kbar)  48453.21      0.00      0.00
                                0.00  48453.21      0.00
                                0.00      0.00  47527.11

     local   stress (kbar) -12683.87      0.00      0.00
                                0.00 -12683.87      0.00
                                0.00      0.00 -44404.82

     nonloc. stress (kbar)  14527.29      0.00      0.00
                                0.00  14527.29      0.00
                                0.00      0.00  14741.94

     hartree stress (kbar)   9610.03     -0.00     -0.00
                               -0.00   9610.03      0.00
                               -0.00      0.00  21379.78

     exc-cor stress (kbar)  -7288.17     -0.00     -0.00
                               -0.00  -7288.17     -0.00
                               -0.00     -0.00  -7263.43

     corecor stress (kbar)      0.00      0.00      0.00
                                0.00      0.00      0.00
                                0.00      0.00      0.00

     ewald   stress (kbar) -52636.21      0.00     -0.00
                                0.00 -52636.21     -0.00
                               -0.00     -0.00 -32007.45

     hubbard stress (kbar)      0.00      0.00      0.00
                                0.00      0.00      0.00
                                0.00      0.00      0.00

     DFT-D   stress (kbar)      0.00      0.00      0.00
                                0.00      0.00      0.00
                                0.00      0.00      0.00

     XDM     stress (kbar)      0.00      0.00      0.00
                                0.00      0.00      0.00
                                0.00      0.00      0.00

     dft-nl  stress (kbar)      0.00      0.00      0.00
                                0.00      0.00      0.00
                                0.00      0.00      0.00

     TS-vdW  stress (kbar)      0.00      0.00      0.00
                                0.00      0.00      0.00
                                0.00      0.00      0.00


                                0.00      0.00      0.00
                                0.00      0.00      0.00


                                0.00      0.00      0.00


     Writing all to output data dir tmp/espresso.save/
 
     init_run     :      4.04s CPU      2.11s WALL (       1 calls)
     electrons    :    134.99s CPU     69.13s WALL (       1 calls)
     forces       :      6.93s CPU      3.55s WALL (       1 calls)
     stress       :      9.94s CPU      5.02s WALL (       1 calls)

     Called by init_run:
     wfcinit      :      3.99s CPU      2.05s WALL (       1 calls)
     wfcinit:atom :      0.01s CPU      0.01s WALL (      40 calls)
     wfcinit:wfcr :      3.86s CPU      1.98s WALL (      40 calls)
     potinit      :      0.02s CPU      0.01s WALL (       1 calls)
     hinit0       :      0.03s CPU      0.03s WALL (       1 calls)

     Called by electrons:
     c_bands      :    123.51s CPU     63.22s WALL (      10 calls)
     sum_band     :     11.31s CPU      5.80s WALL (      10 calls)
     v_of_rho     :      0.05s CPU      0.03s WALL (      11 calls)
     v_h          :      0.01s CPU      0.00s WALL (      11 calls)
     v_xc         :      0.04s CPU      0.02s WALL (      11 calls)
     mix_rho      :      0.05s CPU      0.03s WALL (      10 calls)

     Called by c_bands:
     init_us_2    :      0.35s CPU      0.19s WALL (     920 calls)
     init_us_2:cp :      0.35s CPU      0.18s WALL (     920 calls)
     cegterg      :    114.07s CPU     58.39s WALL (     400 calls)

     Called by sum_band:
     sum_band:wei :      0.08s CPU      0.04s WALL (      10 calls)
     sum_band:loo :     11.21s CPU      5.75s WALL (      10 calls)
     sum_band:buf :      0.06s CPU      0.03s WALL (     400 calls)
     sum_band:ini :      0.11s CPU      0.06s WALL (     400 calls)

     Called by *egterg:
     cdiaghg      :     15.85s CPU      8.07s WALL (    1279 calls)
     cegterg:over :      7.25s CPU      3.67s WALL (     879 calls)
     cegterg:upda :      5.59s CPU      2.84s WALL (     879 calls)
     cegterg:last :      9.86s CPU      5.01s WALL (     800 calls)
     cdiaghg:chol :      0.75s CPU      0.38s WALL (    1279 calls)
     cdiaghg:inve :      0.12s CPU      0.06s WALL (    1279 calls)
     cdiaghg:para :      1.65s CPU      0.84s WALL (    2558 calls)
     h_psi        :     76.32s CPU     39.24s WALL (    1319 calls)
     g_psi        :      0.11s CPU      0.05s WALL (     879 calls)

     Called by h_psi:
     h_psi:calbec :      9.27s CPU      4.85s WALL (    1319 calls)
     vloc_psi     :     53.80s CPU     27.64s WALL (    1319 calls)
     add_vuspsi   :     13.08s CPU      6.66s WALL (    1319 calls)

     General routines
     calbec       :     11.68s CPU      6.11s WALL (    1519 calls)
     fft          :      0.06s CPU      0.03s WALL (     150 calls)
     ffts         :      0.01s CPU      0.01s WALL (      40 calls)
     fftw         :     60.85s CPU     31.25s WALL (  343380 calls)
 
     Parallel routines
 
     PWSCF        :   2m40.74s CPU   1m24.10s WALL

 
   This run was terminated on:  10:42:39  10Apr2022            

=------------------------------------------------------------------------------=
   JOB DONE.
=------------------------------------------------------------------------------=
