
     Program PWSCF v.7.0 starts on 10Apr2022 at 11: 8:51 

     This program is part of the open-source Quantum ESPRESSO suite
     for quantum simulation of materials; please cite
         "P. Giannozzi et al., J. Phys.:Condens. Matter 21 395502 (2009);
         "P. Giannozzi et al., J. Phys.:Condens. Matter 29 465901 (2017);
         "P. Giannozzi et al., J. Chem. Phys. 152 154105 (2020);
          URL http://www.quantum-espresso.org", 
     in publications or presentations arising from this work. More details at
     http://www.quantum-espresso.org/quote

     Parallel version (MPI & OpenMP), running on      64 processor cores
     Number of MPI processes:                32
     Threads/MPI process:                     2

     MPI processes distributed on     1 nodes
     R & G space division:  proc/nbgrp/npool/nimage =      32
     230390 MiB available memory on the printing compute node when the environment starts
 
     Reading input from kpoints_11118.pwi
Warning: card &CELL ignored
Warning: card / ignored

     Current dimensions of program PWSCF are:
     Max number of different atomic species (ntypx) = 10
     Max number of k-points (npk) =  40000
     Max angular momentum in pseudopotentials (lmaxx) =  4

     Subspace diagonalization in iterative solution of the eigenvalue problem:
     one sub-group per band group will be used
     scalapack distributed-memory algorithm (size of sub-group:  5*  5 procs)

 
     Parallelization info
     --------------------
     sticks:   dense  smooth     PW     G-vecs:    dense   smooth      PW
     Min          58      58     17                 1342     1342     210
     Max          59      59     19                 1345     1345     212
     Sum        1885    1885    553                42999    42999    6747
 
     Using Slab Decomposition
 

     Title: 
     IrO2 Unit Cell                                                             


     bravais-lattice index     =            6
     lattice parameter (alat)  =       8.5888  a.u.
     unit-cell volume          =     444.6868 (a.u.)^3
     number of atoms/cell      =            6
     number of atomic types    =            2
     number of electrons       =        58.00
     number of Kohn-Sham states=           70
     kinetic-energy cutoff     =      80.0000  Ry
     charge density cutoff     =     320.0000  Ry
     scf convergence threshold =      1.0E-09
     mixing beta               =       0.7000
     number of iterations used =            8  plain     mixing
     Exchange-correlation= PBE
                           (   1   4   3   4   0   0   0)
     Non magnetic calculation with spin-orbit


     celldm(1)=   8.588800  celldm(2)=   0.000000  celldm(3)=   0.701870
     celldm(4)=   0.000000  celldm(5)=   0.000000  celldm(6)=   0.000000

     crystal axes: (cart. coord. in units of alat)
               a(1) = (   1.000000   0.000000   0.000000 )  
               a(2) = (   0.000000   1.000000   0.000000 )  
               a(3) = (   0.000000   0.000000   0.701870 )  

     reciprocal axes: (cart. coord. in units 2 pi/alat)
               b(1) = (  1.000000  0.000000  0.000000 )  
               b(2) = (  0.000000  1.000000  0.000000 )  
               b(3) = (  0.000000  0.000000  1.424765 )  


     PseudoPot. # 1 for O  read from file:
     ../../XX_PSEUDO/O_ONCV_PBE_fr.upf
     MD5 check sum: 59c925217d3b58c6d762355590b68b09
     Pseudo is Norm-conserving, Zval =  6.0
     Generated using ONCVPSP code by D. R. Hamann
     Using radial grid of  936 points,  6 beta functions with: 
                l(1) =   0
                l(2) =   0
                l(3) =   1
                l(4) =   1
                l(5) =   1
                l(6) =   1

     PseudoPot. # 2 for Ir read from file:
     ../../XX_PSEUDO/Ir_ONCV_PBE_fr.upf
     MD5 check sum: 924e909c4146afa09f62ee3401806954
     Pseudo is Norm-conserving, Zval = 17.0
     Generated using ONCVPSP code by D. R. Hamann
     Using radial grid of 1310 points, 14 beta functions with: 
                l(1) =   0
                l(2) =   0
                l(3) =   1
                l(4) =   1
                l(5) =   1
                l(6) =   1
                l(7) =   2
                l(8) =   2
                l(9) =   2
               l(10) =   2
               l(11) =   3
               l(12) =   3
               l(13) =   3
               l(14) =   3

     atomic species   valence    mass     pseudopotential
        O              6.00    15.99900     O ( 1.00)
        Ir            17.00   192.21700     Ir( 1.00)

     16 Sym. Ops., with inversion, found ( 8 have fractional translation)


                                    s                        frac. trans.

      isym =  1     identity                                     

 cryst.   s( 1) = (     1          0          0      )
                  (     0          1          0      )
                  (     0          0          1      )

 cart.    s( 1) = (  1.0000000  0.0000000  0.0000000 )
                  (  0.0000000  1.0000000  0.0000000 )
                  (  0.0000000  0.0000000  1.0000000 )


      isym =  2     180 deg rotation - cart. axis [0,0,1]        

 cryst.   s( 2) = (    -1          0          0      )
                  (     0         -1          0      )
                  (     0          0          1      )

 cart.    s( 2) = ( -1.0000000  0.0000000  0.0000000 )
                  (  0.0000000 -1.0000000  0.0000000 )
                  (  0.0000000  0.0000000  1.0000000 )


      isym =  3     180 deg rotation - cart. axis [0,1,0]        

 cryst.   s( 3) = (    -1          0          0      )    f =(  0.5000000 )
                  (     0          1          0      )       ( -0.5000000 )
                  (     0          0         -1      )       (  0.5000000 )

 cart.    s( 3) = ( -1.0000000  0.0000000  0.0000000 )    f =(  0.5000000 )
                  (  0.0000000  1.0000000  0.0000000 )       ( -0.5000000 )
                  (  0.0000000  0.0000000 -1.0000000 )       (  0.3509351 )


      isym =  4     180 deg rotation - cart. axis [1,0,0]        

 cryst.   s( 4) = (     1          0          0      )    f =( -0.5000000 )
                  (     0         -1          0      )       (  0.5000000 )
                  (     0          0         -1      )       (  0.5000000 )

 cart.    s( 4) = (  1.0000000  0.0000000  0.0000000 )    f =( -0.5000000 )
                  (  0.0000000 -1.0000000  0.0000000 )       (  0.5000000 )
                  (  0.0000000  0.0000000 -1.0000000 )       (  0.3509351 )


      isym =  5     180 deg rotation - cart. axis [1,1,0]        

 cryst.   s( 5) = (     0          1          0      )
                  (     1          0          0      )
                  (     0          0         -1      )

 cart.    s( 5) = (  0.0000000  1.0000000  0.0000000 )
                  (  1.0000000  0.0000000  0.0000000 )
                  (  0.0000000  0.0000000 -1.0000000 )


      isym =  6     180 deg rotation - cart. axis [1,-1,0]       

 cryst.   s( 6) = (     0         -1          0      )
                  (    -1          0          0      )
                  (     0          0         -1      )

 cart.    s( 6) = (  0.0000000 -1.0000000  0.0000000 )
                  ( -1.0000000  0.0000000  0.0000000 )
                  (  0.0000000  0.0000000 -1.0000000 )


      isym =  7      90 deg rotation - cart. axis [0,0,-1]       

 cryst.   s( 7) = (     0         -1          0      )    f =( -0.5000000 )
                  (     1          0          0      )       (  0.5000000 )
                  (     0          0          1      )       ( -0.5000000 )

 cart.    s( 7) = (  0.0000000  1.0000000  0.0000000 )    f =( -0.5000000 )
                  ( -1.0000000  0.0000000  0.0000000 )       (  0.5000000 )
                  (  0.0000000  0.0000000  1.0000000 )       ( -0.3509351 )


      isym =  8      90 deg rotation - cart. axis [0,0,1]        

 cryst.   s( 8) = (     0          1          0      )    f =(  0.5000000 )
                  (    -1          0          0      )       ( -0.5000000 )
                  (     0          0          1      )       ( -0.5000000 )

 cart.    s( 8) = (  0.0000000 -1.0000000  0.0000000 )    f =(  0.5000000 )
                  (  1.0000000  0.0000000  0.0000000 )       ( -0.5000000 )
                  (  0.0000000  0.0000000  1.0000000 )       ( -0.3509351 )


      isym =  9     inversion                                    

 cryst.   s( 9) = (    -1          0          0      )
                  (     0         -1          0      )
                  (     0          0         -1      )

 cart.    s( 9) = ( -1.0000000  0.0000000  0.0000000 )
                  (  0.0000000 -1.0000000  0.0000000 )
                  (  0.0000000  0.0000000 -1.0000000 )


      isym = 10     inv. 180 deg rotation - cart. axis [0,0,1]   

 cryst.   s(10) = (     1          0          0      )
                  (     0          1          0      )
                  (     0          0         -1      )

 cart.    s(10) = (  1.0000000  0.0000000  0.0000000 )
                  (  0.0000000  1.0000000  0.0000000 )
                  (  0.0000000  0.0000000 -1.0000000 )


      isym = 11     inv. 180 deg rotation - cart. axis [0,1,0]   

 cryst.   s(11) = (     1          0          0      )    f =( -0.5000000 )
                  (     0         -1          0      )       (  0.5000000 )
                  (     0          0          1      )       ( -0.5000000 )

 cart.    s(11) = (  1.0000000  0.0000000  0.0000000 )    f =( -0.5000000 )
                  (  0.0000000 -1.0000000  0.0000000 )       (  0.5000000 )
                  (  0.0000000  0.0000000  1.0000000 )       ( -0.3509351 )


      isym = 12     inv. 180 deg rotation - cart. axis [1,0,0]   

 cryst.   s(12) = (    -1          0          0      )    f =(  0.5000000 )
                  (     0          1          0      )       ( -0.5000000 )
                  (     0          0          1      )       ( -0.5000000 )

 cart.    s(12) = ( -1.0000000  0.0000000  0.0000000 )    f =(  0.5000000 )
                  (  0.0000000  1.0000000  0.0000000 )       ( -0.5000000 )
                  (  0.0000000  0.0000000  1.0000000 )       ( -0.3509351 )


      isym = 13     inv. 180 deg rotation - cart. axis [1,1,0]   

 cryst.   s(13) = (     0         -1          0      )
                  (    -1          0          0      )
                  (     0          0          1      )

 cart.    s(13) = (  0.0000000 -1.0000000  0.0000000 )
                  ( -1.0000000  0.0000000  0.0000000 )
                  (  0.0000000  0.0000000  1.0000000 )


      isym = 14     inv. 180 deg rotation - cart. axis [1,-1,0]  

 cryst.   s(14) = (     0          1          0      )
                  (     1          0          0      )
                  (     0          0          1      )

 cart.    s(14) = (  0.0000000  1.0000000  0.0000000 )
                  (  1.0000000  0.0000000  0.0000000 )
                  (  0.0000000  0.0000000  1.0000000 )


      isym = 15     inv.  90 deg rotation - cart. axis [0,0,-1]  

 cryst.   s(15) = (     0          1          0      )    f =(  0.5000000 )
                  (    -1          0          0      )       ( -0.5000000 )
                  (     0          0         -1      )       (  0.5000000 )

 cart.    s(15) = (  0.0000000 -1.0000000  0.0000000 )    f =(  0.5000000 )
                  (  1.0000000  0.0000000  0.0000000 )       ( -0.5000000 )
                  (  0.0000000  0.0000000 -1.0000000 )       (  0.3509351 )


      isym = 16     inv.  90 deg rotation - cart. axis [0,0,1]   

 cryst.   s(16) = (     0         -1          0      )    f =( -0.5000000 )
                  (     1          0          0      )       (  0.5000000 )
                  (     0          0         -1      )       (  0.5000000 )

 cart.    s(16) = (  0.0000000  1.0000000  0.0000000 )    f =( -0.5000000 )
                  ( -1.0000000  0.0000000  0.0000000 )       (  0.5000000 )
                  (  0.0000000  0.0000000 -1.0000000 )       (  0.3509351 )


     double point group D_4h(4/mmm)
     there are 14 classes and  4 irreducible representations
     the character table:

       E     -E    2C4   -2C4   C2    2C2' 2C2'' i     -i    2S4   -2S4   s_h 
                               -C2   -2C2' -2C2'                         -s_h 
G_6+   2.00 -2.00  1.41 -1.41  0.00  0.00  0.00  2.00 -2.00  1.41 -1.41  0.00
G_7+   2.00 -2.00 -1.41  1.41  0.00  0.00  0.00  2.00 -2.00 -1.41  1.41  0.00
G_6-   2.00 -2.00  1.41 -1.41  0.00  0.00  0.00 -2.00  2.00 -1.41  1.41  0.00
G_7-   2.00 -2.00 -1.41  1.41  0.00  0.00  0.00 -2.00  2.00  1.41 -1.41  0.00

        2s_v  2s_d
       -2s_v -2s_d
G_6+   0.00  0.00
G_7+   0.00  0.00
G_6-   0.00  0.00
G_7-   0.00  0.00

     the symmetry operations in each class and the name of the first element:

     E             1
          identity                                               
     -E           -1
          identity E                                             
     2C4           7    8
           90 deg rotation - cart. axis [0,0,-1]                 
     -2C4         -7   -8
           90 deg rotation - cart. axis [0,0,-1] E               
      C2  -C2      2   -2
          180 deg rotation - cart. axis [0,0,1]                  
      2C2'-2C2'    3   -3    4   -4
          180 deg rotation - cart. axis [0,1,0]                  
     2C2''-2C2'    5   -5   -6    6
          180 deg rotation - cart. axis [1,1,0]                  
     i             9
          inversion                                              
     -i           -9
          inversion E                                            
     2S4          15   16
          inv.  90 deg rotation - cart. axis [0,0,-1]            
     -2S4        -15  -16
          inv.  90 deg rotation - cart. axis [0,0,-1] E          
      s_h -s_h    10  -10
          inv. 180 deg rotation - cart. axis [0,0,1]             
      2s_v-2s_v   11  -11   12  -12
          inv. 180 deg rotation - cart. axis [0,1,0]             
      2s_d-2s_d   13  -13  -14   14
          inv. 180 deg rotation - cart. axis [1,1,0]             

   Cartesian axes

     site n.     atom                  positions (alat units)
         1           Ir  tau(   1) = (   0.0000000   0.0000000   0.0000000  )
         2           Ir  tau(   2) = (   0.5000000   0.5000000   0.3509351  )
         3           O   tau(   3) = (   0.1916000   0.8084000   0.3509351  )
         4           O   tau(   4) = (   0.3084000   0.3084000   0.0000000  )
         5           O   tau(   5) = (   0.6916000   0.6916000   0.0000000  )
         6           O   tau(   6) = (   0.8084000   0.1916000   0.3509351  )

   Crystallographic axes

     site n.     atom                  positions (cryst. coord.)
         1           Ir  tau(   1) = (  0.0000000  0.0000000  0.0000000  )
         2           Ir  tau(   2) = (  0.5000000  0.5000000  0.5000000  )
         3           O   tau(   3) = (  0.1916000  0.8084000  0.5000000  )
         4           O   tau(   4) = (  0.3084000  0.3084000  0.0000000  )
         5           O   tau(   5) = (  0.6916000  0.6916000  0.0000000  )
         6           O   tau(   6) = (  0.8084000  0.1916000  0.5000000  )

     number of k points=   105  Methfessel-Paxton smearing, width (Ry)=  0.0050
                       cart. coord. in units 2pi/alat
        k(    1) = (   0.0000000   0.0000000   0.0000000), wk =   0.0010331
        k(    2) = (   0.0000000   0.0000000   0.1780956), wk =   0.0020661
        k(    3) = (   0.0000000   0.0000000   0.3561912), wk =   0.0020661
        k(    4) = (   0.0000000   0.0000000   0.5342868), wk =   0.0020661
        k(    5) = (   0.0000000   0.0000000  -0.7123824), wk =   0.0010331
        k(    6) = (   0.0000000   0.0909091   0.0000000), wk =   0.0041322
        k(    7) = (   0.0000000   0.0909091   0.1780956), wk =   0.0082645
        k(    8) = (   0.0000000   0.0909091   0.3561912), wk =   0.0082645
        k(    9) = (   0.0000000   0.0909091   0.5342868), wk =   0.0082645
        k(   10) = (   0.0000000   0.0909091  -0.7123824), wk =   0.0041322
        k(   11) = (   0.0000000   0.1818182   0.0000000), wk =   0.0041322
        k(   12) = (   0.0000000   0.1818182   0.1780956), wk =   0.0082645
        k(   13) = (   0.0000000   0.1818182   0.3561912), wk =   0.0082645
        k(   14) = (   0.0000000   0.1818182   0.5342868), wk =   0.0082645
        k(   15) = (   0.0000000   0.1818182  -0.7123824), wk =   0.0041322
        k(   16) = (   0.0000000   0.2727273   0.0000000), wk =   0.0041322
        k(   17) = (   0.0000000   0.2727273   0.1780956), wk =   0.0082645
        k(   18) = (   0.0000000   0.2727273   0.3561912), wk =   0.0082645
        k(   19) = (   0.0000000   0.2727273   0.5342868), wk =   0.0082645
        k(   20) = (   0.0000000   0.2727273  -0.7123824), wk =   0.0041322
        k(   21) = (   0.0000000   0.3636364   0.0000000), wk =   0.0041322
        k(   22) = (   0.0000000   0.3636364   0.1780956), wk =   0.0082645
        k(   23) = (   0.0000000   0.3636364   0.3561912), wk =   0.0082645
        k(   24) = (   0.0000000   0.3636364   0.5342868), wk =   0.0082645
        k(   25) = (   0.0000000   0.3636364  -0.7123824), wk =   0.0041322
        k(   26) = (   0.0000000   0.4545455   0.0000000), wk =   0.0041322
        k(   27) = (   0.0000000   0.4545455   0.1780956), wk =   0.0082645
        k(   28) = (   0.0000000   0.4545455   0.3561912), wk =   0.0082645
        k(   29) = (   0.0000000   0.4545455   0.5342868), wk =   0.0082645
        k(   30) = (   0.0000000   0.4545455  -0.7123824), wk =   0.0041322
        k(   31) = (   0.0909091   0.0909091   0.0000000), wk =   0.0041322
        k(   32) = (   0.0909091   0.0909091   0.1780956), wk =   0.0082645
        k(   33) = (   0.0909091   0.0909091   0.3561912), wk =   0.0082645
        k(   34) = (   0.0909091   0.0909091   0.5342868), wk =   0.0082645
        k(   35) = (   0.0909091   0.0909091  -0.7123824), wk =   0.0041322
        k(   36) = (   0.0909091   0.1818182   0.0000000), wk =   0.0082645
        k(   37) = (   0.0909091   0.1818182   0.1780956), wk =   0.0165289
        k(   38) = (   0.0909091   0.1818182   0.3561912), wk =   0.0165289
        k(   39) = (   0.0909091   0.1818182   0.5342868), wk =   0.0165289
        k(   40) = (   0.0909091   0.1818182  -0.7123824), wk =   0.0082645
        k(   41) = (   0.0909091   0.2727273   0.0000000), wk =   0.0082645
        k(   42) = (   0.0909091   0.2727273   0.1780956), wk =   0.0165289
        k(   43) = (   0.0909091   0.2727273   0.3561912), wk =   0.0165289
        k(   44) = (   0.0909091   0.2727273   0.5342868), wk =   0.0165289
        k(   45) = (   0.0909091   0.2727273  -0.7123824), wk =   0.0082645
        k(   46) = (   0.0909091   0.3636364   0.0000000), wk =   0.0082645
        k(   47) = (   0.0909091   0.3636364   0.1780956), wk =   0.0165289
        k(   48) = (   0.0909091   0.3636364   0.3561912), wk =   0.0165289
        k(   49) = (   0.0909091   0.3636364   0.5342868), wk =   0.0165289
        k(   50) = (   0.0909091   0.3636364  -0.7123824), wk =   0.0082645
        k(   51) = (   0.0909091   0.4545455   0.0000000), wk =   0.0082645
        k(   52) = (   0.0909091   0.4545455   0.1780956), wk =   0.0165289
        k(   53) = (   0.0909091   0.4545455   0.3561912), wk =   0.0165289
        k(   54) = (   0.0909091   0.4545455   0.5342868), wk =   0.0165289
        k(   55) = (   0.0909091   0.4545455  -0.7123824), wk =   0.0082645
        k(   56) = (   0.1818182   0.1818182   0.0000000), wk =   0.0041322
        k(   57) = (   0.1818182   0.1818182   0.1780956), wk =   0.0082645
        k(   58) = (   0.1818182   0.1818182   0.3561912), wk =   0.0082645
        k(   59) = (   0.1818182   0.1818182   0.5342868), wk =   0.0082645
        k(   60) = (   0.1818182   0.1818182  -0.7123824), wk =   0.0041322
        k(   61) = (   0.1818182   0.2727273   0.0000000), wk =   0.0082645
        k(   62) = (   0.1818182   0.2727273   0.1780956), wk =   0.0165289
        k(   63) = (   0.1818182   0.2727273   0.3561912), wk =   0.0165289
        k(   64) = (   0.1818182   0.2727273   0.5342868), wk =   0.0165289
        k(   65) = (   0.1818182   0.2727273  -0.7123824), wk =   0.0082645
        k(   66) = (   0.1818182   0.3636364   0.0000000), wk =   0.0082645
        k(   67) = (   0.1818182   0.3636364   0.1780956), wk =   0.0165289
        k(   68) = (   0.1818182   0.3636364   0.3561912), wk =   0.0165289
        k(   69) = (   0.1818182   0.3636364   0.5342868), wk =   0.0165289
        k(   70) = (   0.1818182   0.3636364  -0.7123824), wk =   0.0082645
        k(   71) = (   0.1818182   0.4545455   0.0000000), wk =   0.0082645
        k(   72) = (   0.1818182   0.4545455   0.1780956), wk =   0.0165289
        k(   73) = (   0.1818182   0.4545455   0.3561912), wk =   0.0165289
        k(   74) = (   0.1818182   0.4545455   0.5342868), wk =   0.0165289
        k(   75) = (   0.1818182   0.4545455  -0.7123824), wk =   0.0082645
        k(   76) = (   0.2727273   0.2727273   0.0000000), wk =   0.0041322
        k(   77) = (   0.2727273   0.2727273   0.1780956), wk =   0.0082645
        k(   78) = (   0.2727273   0.2727273   0.3561912), wk =   0.0082645
        k(   79) = (   0.2727273   0.2727273   0.5342868), wk =   0.0082645
        k(   80) = (   0.2727273   0.2727273  -0.7123824), wk =   0.0041322
        k(   81) = (   0.2727273   0.3636364   0.0000000), wk =   0.0082645
        k(   82) = (   0.2727273   0.3636364   0.1780956), wk =   0.0165289
        k(   83) = (   0.2727273   0.3636364   0.3561912), wk =   0.0165289
        k(   84) = (   0.2727273   0.3636364   0.5342868), wk =   0.0165289
        k(   85) = (   0.2727273   0.3636364  -0.7123824), wk =   0.0082645
        k(   86) = (   0.2727273   0.4545455   0.0000000), wk =   0.0082645
        k(   87) = (   0.2727273   0.4545455   0.1780956), wk =   0.0165289
        k(   88) = (   0.2727273   0.4545455   0.3561912), wk =   0.0165289
        k(   89) = (   0.2727273   0.4545455   0.5342868), wk =   0.0165289
        k(   90) = (   0.2727273   0.4545455  -0.7123824), wk =   0.0082645
        k(   91) = (   0.3636364   0.3636364   0.0000000), wk =   0.0041322
        k(   92) = (   0.3636364   0.3636364   0.1780956), wk =   0.0082645
        k(   93) = (   0.3636364   0.3636364   0.3561912), wk =   0.0082645
        k(   94) = (   0.3636364   0.3636364   0.5342868), wk =   0.0082645
        k(   95) = (   0.3636364   0.3636364  -0.7123824), wk =   0.0041322
        k(   96) = (   0.3636364   0.4545455   0.0000000), wk =   0.0082645
        k(   97) = (   0.3636364   0.4545455   0.1780956), wk =   0.0165289
        k(   98) = (   0.3636364   0.4545455   0.3561912), wk =   0.0165289
        k(   99) = (   0.3636364   0.4545455   0.5342868), wk =   0.0165289
        k(  100) = (   0.3636364   0.4545455  -0.7123824), wk =   0.0082645
        k(  101) = (   0.4545455   0.4545455   0.0000000), wk =   0.0041322
        k(  102) = (   0.4545455   0.4545455   0.1780956), wk =   0.0082645
        k(  103) = (   0.4545455   0.4545455   0.3561912), wk =   0.0082645
        k(  104) = (   0.4545455   0.4545455   0.5342868), wk =   0.0082645
        k(  105) = (   0.4545455   0.4545455  -0.7123824), wk =   0.0041322

                       cryst. coord.
        k(    1) = (   0.0000000   0.0000000   0.0000000), wk =   0.0010331
        k(    2) = (   0.0000000   0.0000000   0.1250000), wk =   0.0020661
        k(    3) = (   0.0000000   0.0000000   0.2500000), wk =   0.0020661
        k(    4) = (   0.0000000   0.0000000   0.3750000), wk =   0.0020661
        k(    5) = (   0.0000000   0.0000000  -0.5000000), wk =   0.0010331
        k(    6) = (   0.0000000   0.0909091   0.0000000), wk =   0.0041322
        k(    7) = (   0.0000000   0.0909091   0.1250000), wk =   0.0082645
        k(    8) = (   0.0000000   0.0909091   0.2500000), wk =   0.0082645
        k(    9) = (   0.0000000   0.0909091   0.3750000), wk =   0.0082645
        k(   10) = (   0.0000000   0.0909091  -0.5000000), wk =   0.0041322
        k(   11) = (   0.0000000   0.1818182   0.0000000), wk =   0.0041322
        k(   12) = (   0.0000000   0.1818182   0.1250000), wk =   0.0082645
        k(   13) = (   0.0000000   0.1818182   0.2500000), wk =   0.0082645
        k(   14) = (   0.0000000   0.1818182   0.3750000), wk =   0.0082645
        k(   15) = (   0.0000000   0.1818182  -0.5000000), wk =   0.0041322
        k(   16) = (   0.0000000   0.2727273   0.0000000), wk =   0.0041322
        k(   17) = (   0.0000000   0.2727273   0.1250000), wk =   0.0082645
        k(   18) = (   0.0000000   0.2727273   0.2500000), wk =   0.0082645
        k(   19) = (   0.0000000   0.2727273   0.3750000), wk =   0.0082645
        k(   20) = (   0.0000000   0.2727273  -0.5000000), wk =   0.0041322
        k(   21) = (   0.0000000   0.3636364   0.0000000), wk =   0.0041322
        k(   22) = (   0.0000000   0.3636364   0.1250000), wk =   0.0082645
        k(   23) = (   0.0000000   0.3636364   0.2500000), wk =   0.0082645
        k(   24) = (   0.0000000   0.3636364   0.3750000), wk =   0.0082645
        k(   25) = (   0.0000000   0.3636364  -0.5000000), wk =   0.0041322
        k(   26) = (   0.0000000   0.4545455   0.0000000), wk =   0.0041322
        k(   27) = (   0.0000000   0.4545455   0.1250000), wk =   0.0082645
        k(   28) = (   0.0000000   0.4545455   0.2500000), wk =   0.0082645
        k(   29) = (   0.0000000   0.4545455   0.3750000), wk =   0.0082645
        k(   30) = (   0.0000000   0.4545455  -0.5000000), wk =   0.0041322
        k(   31) = (   0.0909091   0.0909091   0.0000000), wk =   0.0041322
        k(   32) = (   0.0909091   0.0909091   0.1250000), wk =   0.0082645
        k(   33) = (   0.0909091   0.0909091   0.2500000), wk =   0.0082645
        k(   34) = (   0.0909091   0.0909091   0.3750000), wk =   0.0082645
        k(   35) = (   0.0909091   0.0909091  -0.5000000), wk =   0.0041322
        k(   36) = (   0.0909091   0.1818182   0.0000000), wk =   0.0082645
        k(   37) = (   0.0909091   0.1818182   0.1250000), wk =   0.0165289
        k(   38) = (   0.0909091   0.1818182   0.2500000), wk =   0.0165289
        k(   39) = (   0.0909091   0.1818182   0.3750000), wk =   0.0165289
        k(   40) = (   0.0909091   0.1818182  -0.5000000), wk =   0.0082645
        k(   41) = (   0.0909091   0.2727273   0.0000000), wk =   0.0082645
        k(   42) = (   0.0909091   0.2727273   0.1250000), wk =   0.0165289
        k(   43) = (   0.0909091   0.2727273   0.2500000), wk =   0.0165289
        k(   44) = (   0.0909091   0.2727273   0.3750000), wk =   0.0165289
        k(   45) = (   0.0909091   0.2727273  -0.5000000), wk =   0.0082645
        k(   46) = (   0.0909091   0.3636364   0.0000000), wk =   0.0082645
        k(   47) = (   0.0909091   0.3636364   0.1250000), wk =   0.0165289
        k(   48) = (   0.0909091   0.3636364   0.2500000), wk =   0.0165289
        k(   49) = (   0.0909091   0.3636364   0.3750000), wk =   0.0165289
        k(   50) = (   0.0909091   0.3636364  -0.5000000), wk =   0.0082645
        k(   51) = (   0.0909091   0.4545455   0.0000000), wk =   0.0082645
        k(   52) = (   0.0909091   0.4545455   0.1250000), wk =   0.0165289
        k(   53) = (   0.0909091   0.4545455   0.2500000), wk =   0.0165289
        k(   54) = (   0.0909091   0.4545455   0.3750000), wk =   0.0165289
        k(   55) = (   0.0909091   0.4545455  -0.5000000), wk =   0.0082645
        k(   56) = (   0.1818182   0.1818182   0.0000000), wk =   0.0041322
        k(   57) = (   0.1818182   0.1818182   0.1250000), wk =   0.0082645
        k(   58) = (   0.1818182   0.1818182   0.2500000), wk =   0.0082645
        k(   59) = (   0.1818182   0.1818182   0.3750000), wk =   0.0082645
        k(   60) = (   0.1818182   0.1818182  -0.5000000), wk =   0.0041322
        k(   61) = (   0.1818182   0.2727273   0.0000000), wk =   0.0082645
        k(   62) = (   0.1818182   0.2727273   0.1250000), wk =   0.0165289
        k(   63) = (   0.1818182   0.2727273   0.2500000), wk =   0.0165289
        k(   64) = (   0.1818182   0.2727273   0.3750000), wk =   0.0165289
        k(   65) = (   0.1818182   0.2727273  -0.5000000), wk =   0.0082645
        k(   66) = (   0.1818182   0.3636364   0.0000000), wk =   0.0082645
        k(   67) = (   0.1818182   0.3636364   0.1250000), wk =   0.0165289
        k(   68) = (   0.1818182   0.3636364   0.2500000), wk =   0.0165289
        k(   69) = (   0.1818182   0.3636364   0.3750000), wk =   0.0165289
        k(   70) = (   0.1818182   0.3636364  -0.5000000), wk =   0.0082645
        k(   71) = (   0.1818182   0.4545455   0.0000000), wk =   0.0082645
        k(   72) = (   0.1818182   0.4545455   0.1250000), wk =   0.0165289
        k(   73) = (   0.1818182   0.4545455   0.2500000), wk =   0.0165289
        k(   74) = (   0.1818182   0.4545455   0.3750000), wk =   0.0165289
        k(   75) = (   0.1818182   0.4545455  -0.5000000), wk =   0.0082645
        k(   76) = (   0.2727273   0.2727273   0.0000000), wk =   0.0041322
        k(   77) = (   0.2727273   0.2727273   0.1250000), wk =   0.0082645
        k(   78) = (   0.2727273   0.2727273   0.2500000), wk =   0.0082645
        k(   79) = (   0.2727273   0.2727273   0.3750000), wk =   0.0082645
        k(   80) = (   0.2727273   0.2727273  -0.5000000), wk =   0.0041322
        k(   81) = (   0.2727273   0.3636364   0.0000000), wk =   0.0082645
        k(   82) = (   0.2727273   0.3636364   0.1250000), wk =   0.0165289
        k(   83) = (   0.2727273   0.3636364   0.2500000), wk =   0.0165289
        k(   84) = (   0.2727273   0.3636364   0.3750000), wk =   0.0165289
        k(   85) = (   0.2727273   0.3636364  -0.5000000), wk =   0.0082645
        k(   86) = (   0.2727273   0.4545455   0.0000000), wk =   0.0082645
        k(   87) = (   0.2727273   0.4545455   0.1250000), wk =   0.0165289
        k(   88) = (   0.2727273   0.4545455   0.2500000), wk =   0.0165289
        k(   89) = (   0.2727273   0.4545455   0.3750000), wk =   0.0165289
        k(   90) = (   0.2727273   0.4545455  -0.5000000), wk =   0.0082645
        k(   91) = (   0.3636364   0.3636364   0.0000000), wk =   0.0041322
        k(   92) = (   0.3636364   0.3636364   0.1250000), wk =   0.0082645
        k(   93) = (   0.3636364   0.3636364   0.2500000), wk =   0.0082645
        k(   94) = (   0.3636364   0.3636364   0.3750000), wk =   0.0082645
        k(   95) = (   0.3636364   0.3636364  -0.5000000), wk =   0.0041322
        k(   96) = (   0.3636364   0.4545455   0.0000000), wk =   0.0082645
        k(   97) = (   0.3636364   0.4545455   0.1250000), wk =   0.0165289
        k(   98) = (   0.3636364   0.4545455   0.2500000), wk =   0.0165289
        k(   99) = (   0.3636364   0.4545455   0.3750000), wk =   0.0165289
        k(  100) = (   0.3636364   0.4545455  -0.5000000), wk =   0.0082645
        k(  101) = (   0.4545455   0.4545455   0.0000000), wk =   0.0041322
        k(  102) = (   0.4545455   0.4545455   0.1250000), wk =   0.0082645
        k(  103) = (   0.4545455   0.4545455   0.2500000), wk =   0.0082645
        k(  104) = (   0.4545455   0.4545455   0.3750000), wk =   0.0082645
        k(  105) = (   0.4545455   0.4545455  -0.5000000), wk =   0.0041322

     Dense  grid:    42999 G-vectors     FFT dimensions: (  50,  50,  36)

     Dynamical RAM for                 wfc:       0.36 MB

     Dynamical RAM for     wfc (w. buffer):      37.82 MB

     Dynamical RAM for           str. fact:       0.04 MB

     Dynamical RAM for           local pot:       0.00 MB

     Dynamical RAM for          nlocal pot:       0.46 MB

     Dynamical RAM for                qrad:      20.10 MB

     Dynamical RAM for          rho,v,vnew:       0.70 MB

     Dynamical RAM for               rhoin:       0.23 MB

     Dynamical RAM for            rho*nmix:       1.31 MB

     Dynamical RAM for           G-vectors:       0.09 MB

     Dynamical RAM for          h,s,v(r/c):       0.04 MB

     Dynamical RAM for          <psi|beta>:       0.38 MB

     Dynamical RAM for                 psi:       0.71 MB

     Dynamical RAM for                hpsi:       0.71 MB

     Dynamical RAM for      wfcinit/wfcrot:       0.67 MB

     Estimated static dynamical RAM per process >      59.81 MB

     Estimated max dynamical RAM per process >      62.97 MB

     Estimated total dynamical RAM >       1.97 GB

     Initial potential from superposition of free atoms

     starting charge      57.9997, renormalised to      58.0000
     Starting wfcs are   72 randomized atomic wfcs

     total cpu time spent up to now is        5.5 secs

     Self-consistent Calculation

     iteration #  1     ecut=    80.00 Ry     beta= 0.70
     Davidson diagonalization with overlap

---- Real-time Memory Report at c_bands before calling an iterative solver
           113 MiB given to the printing process from OS
             0 MiB allocation reported by mallinfo(arena+hblkhd)
        227811 MiB available memory on the node where the printing process lives
------------------
     ethr =  1.00E-02,  avg # of iterations =  2.7

     total cpu time spent up to now is       23.7 secs

     total energy              =    -552.42653926 Ry
     estimated scf accuracy    <       1.21499080 Ry

     iteration #  2     ecut=    80.00 Ry     beta= 0.70
     Davidson diagonalization with overlap

---- Real-time Memory Report at c_bands before calling an iterative solver
           122 MiB given to the printing process from OS
             0 MiB allocation reported by mallinfo(arena+hblkhd)
        227636 MiB available memory on the node where the printing process lives
------------------
     ethr =  2.09E-03,  avg # of iterations =  2.0

     total cpu time spent up to now is       43.5 secs

     total energy              =    -552.28249257 Ry
     estimated scf accuracy    <       4.27965552 Ry

     iteration #  3     ecut=    80.00 Ry     beta= 0.70
     Davidson diagonalization with overlap

---- Real-time Memory Report at c_bands before calling an iterative solver
           123 MiB given to the printing process from OS
             0 MiB allocation reported by mallinfo(arena+hblkhd)
        227607 MiB available memory on the node where the printing process lives
------------------
     ethr =  2.09E-03,  avg # of iterations =  2.0

     total cpu time spent up to now is       62.0 secs

     total energy              =    -553.07563692 Ry
     estimated scf accuracy    <       0.03333325 Ry

     iteration #  4     ecut=    80.00 Ry     beta= 0.70
     Davidson diagonalization with overlap

---- Real-time Memory Report at c_bands before calling an iterative solver
           124 MiB given to the printing process from OS
             0 MiB allocation reported by mallinfo(arena+hblkhd)
        227594 MiB available memory on the node where the printing process lives
------------------
     ethr =  5.75E-05,  avg # of iterations =  2.8

     total cpu time spent up to now is       81.2 secs

     total energy              =    -553.07927752 Ry
     estimated scf accuracy    <       0.00470827 Ry

     iteration #  5     ecut=    80.00 Ry     beta= 0.70
     Davidson diagonalization with overlap

---- Real-time Memory Report at c_bands before calling an iterative solver
           125 MiB given to the printing process from OS
             0 MiB allocation reported by mallinfo(arena+hblkhd)
        227576 MiB available memory on the node where the printing process lives
------------------
     ethr =  8.12E-06,  avg # of iterations =  2.6

     total cpu time spent up to now is       98.0 secs

     total energy              =    -553.08009103 Ry
     estimated scf accuracy    <       0.00025190 Ry

     iteration #  6     ecut=    80.00 Ry     beta= 0.70
     Davidson diagonalization with overlap

---- Real-time Memory Report at c_bands before calling an iterative solver
           126 MiB given to the printing process from OS
             0 MiB allocation reported by mallinfo(arena+hblkhd)
        227562 MiB available memory on the node where the printing process lives
------------------
     ethr =  4.34E-07,  avg # of iterations =  3.2

     total cpu time spent up to now is      115.3 secs

     total energy              =    -553.08012360 Ry
     estimated scf accuracy    <       0.00000923 Ry

     iteration #  7     ecut=    80.00 Ry     beta= 0.70
     Davidson diagonalization with overlap

---- Real-time Memory Report at c_bands before calling an iterative solver
           126 MiB given to the printing process from OS
             0 MiB allocation reported by mallinfo(arena+hblkhd)
        227556 MiB available memory on the node where the printing process lives
------------------
     ethr =  1.59E-08,  avg # of iterations =  2.0

     total cpu time spent up to now is      134.7 secs

     total energy              =    -553.08012676 Ry
     estimated scf accuracy    <       0.00000058 Ry

     iteration #  8     ecut=    80.00 Ry     beta= 0.70
     Davidson diagonalization with overlap

---- Real-time Memory Report at c_bands before calling an iterative solver
           130 MiB given to the printing process from OS
             0 MiB allocation reported by mallinfo(arena+hblkhd)
        227489 MiB available memory on the node where the printing process lives
------------------
     ethr =  9.96E-10,  avg # of iterations =  2.1

     total cpu time spent up to now is      151.2 secs

     total energy              =    -553.08012679 Ry
     estimated scf accuracy    <       0.00000009 Ry

     iteration #  9     ecut=    80.00 Ry     beta= 0.70
     Davidson diagonalization with overlap

---- Real-time Memory Report at c_bands before calling an iterative solver
           130 MiB given to the printing process from OS
             0 MiB allocation reported by mallinfo(arena+hblkhd)
        227499 MiB available memory on the node where the printing process lives
------------------
     ethr =  1.48E-10,  avg # of iterations =  2.2

     total cpu time spent up to now is      169.7 secs

     total energy              =    -553.08012681 Ry
     estimated scf accuracy    <          4.1E-09 Ry

     iteration # 10     ecut=    80.00 Ry     beta= 0.70
     Davidson diagonalization with overlap

---- Real-time Memory Report at c_bands before calling an iterative solver
           130 MiB given to the printing process from OS
             0 MiB allocation reported by mallinfo(arena+hblkhd)
        227497 MiB available memory on the node where the printing process lives
------------------
     ethr =  7.15E-12,  avg # of iterations =  2.1

     total cpu time spent up to now is      188.2 secs

     End of self-consistent calculation

          k = 0.0000 0.0000 0.0000 (  5409 PWs)   bands (ev):

   -79.3826 -79.3826 -79.3813 -79.3813 -46.2252 -46.2252 -46.2144 -46.2144
   -32.7642 -32.7642 -32.7535 -32.7535 -32.6208 -32.6208 -32.6064 -32.6064
    -7.0749  -7.0749  -5.9191  -5.9191  -5.0042  -5.0042  -4.8027  -4.8027
     4.2688   4.2688   4.5161   4.5161   6.0330   6.0330   6.1445   6.1445
     6.2582   6.2582   8.7855   8.7855   8.9374   8.9374   9.1950   9.1950
    10.3324  10.3324  10.9874  10.9874  10.9916  10.9916  11.0299  11.0299
    11.2054  11.2054  11.3865  11.3865  11.6454  11.6454  11.6738  11.6738
    12.0593  12.0593  14.6460  14.6460  15.0722  15.0722  17.6887  17.6887
    17.8967  17.8967  18.0459  18.0459  19.4481  19.4481

     occupation numbers 
     1.0000   1.0000   1.0000   1.0000   1.0000   1.0000   1.0000   1.0000
     1.0000   1.0000   1.0000   1.0000   1.0000   1.0000   1.0000   1.0000
     1.0000   1.0000   1.0000   1.0000   1.0000   1.0000   1.0000   1.0000
     1.0000   1.0000   1.0000   1.0000   1.0000   1.0000   1.0000   1.0000
     1.0000   1.0000   1.0000   1.0000   1.0000   1.0000   1.0000   1.0000
     1.0000   1.0000   1.0000   1.0000   1.0000   1.0000   1.0000   1.0000
     1.0000   1.0000   1.0000   1.0000   1.0000   1.0000   1.0000   1.0000
     1.0000   1.0000  -0.0000  -0.0000  -0.0000  -0.0000  -0.0000  -0.0000
    -0.0000  -0.0000  -0.0000  -0.0000  -0.0000  -0.0000

          k = 0.0000 0.0000 0.1781 (  5369 PWs)   bands (ev):

   -79.3822 -79.3822 -79.3810 -79.3810 -46.2264 -46.2264 -46.2165 -46.2165
   -32.7676 -32.7676 -32.7619 -32.7619 -32.6270 -32.6270 -32.6094 -32.6094
    -6.9336  -6.9336  -5.8462  -5.8462  -5.0701  -5.0701  -4.8911  -4.8911
     4.4748   4.4748   4.6646   4.6646   6.1558   6.1558   6.2296   6.2296
     6.4088   6.4088   8.2469   8.2469   9.0432   9.0432   9.3028   9.3028
     9.5386   9.5386  10.1215  10.1215  10.2292  10.2292  11.2942  11.2942
    11.6181  11.6181  11.6418  11.6418  11.7616  11.7616  12.3594  12.3594
    12.4494  12.4494  14.9256  14.9256  14.9741  14.9741  17.3276  17.3276
    17.6441  17.6441  18.2984  18.2984  19.1807  19.1807

     occupation numbers 
     1.0000   1.0000   1.0000   1.0000   1.0000   1.0000   1.0000   1.0000
     1.0000   1.0000   1.0000   1.0000   1.0000   1.0000   1.0000   1.0000
     1.0000   1.0000   1.0000   1.0000   1.0000   1.0000   1.0000   1.0000
     1.0000   1.0000   1.0000   1.0000   1.0000   1.0000   1.0000   1.0000
     1.0000   1.0000   1.0000   1.0000   1.0000   1.0000   1.0000   1.0000
     1.0000   1.0000   1.0000   1.0000   1.0000   1.0000   1.0000   1.0000
     1.0000   1.0000   1.0000   1.0000   1.0000   1.0000   1.0000   1.0000
     1.0000   1.0000  -0.0000  -0.0000  -0.0000  -0.0000  -0.0000  -0.0000
    -0.0000  -0.0000  -0.0000  -0.0000  -0.0000  -0.0000

          k = 0.0000 0.0000 0.3562 (  5381 PWs)   bands (ev):

   -79.3813 -79.3813 -79.3804 -79.3804 -46.2292 -46.2292 -46.2216 -46.2216
   -32.7832 -32.7832 -32.7807 -32.7807 -32.6364 -32.6364 -32.6159 -32.6159
    -6.5603  -6.5603  -5.6926  -5.6926  -5.2193  -5.2193  -5.0995  -5.0995
     5.0371   5.0371   5.0444   5.0444   6.4665   6.4665   6.4696   6.4696
     6.8574   6.8574   7.2522   7.2522   8.2926   8.2926   9.1132   9.1132
     9.3284   9.3284   9.4443   9.4443   9.7643   9.7643  10.5849  10.5849
    11.7980  11.7980  11.9550  11.9550  12.1534  12.1534  13.1808  13.1808
    13.2012  13.2012  14.5212  14.5212  15.6437  15.6437  16.6630  16.6630
    16.9549  16.9549  17.9987  17.9987  19.8588  19.8588

     occupation numbers 
     1.0000   1.0000   1.0000   1.0000   1.0000   1.0000   1.0000   1.0000
     1.0000   1.0000   1.0000   1.0000   1.0000   1.0000   1.0000   1.0000
     1.0000   1.0000   1.0000   1.0000   1.0000   1.0000   1.0000   1.0000
     1.0000   1.0000   1.0000   1.0000   1.0000   1.0000   1.0000   1.0000
     1.0000   1.0000   1.0000   1.0000   1.0000   1.0000   1.0000   1.0000
     1.0000   1.0000   1.0000   1.0000   1.0000   1.0000   1.0000   1.0000
     1.0000   1.0000   1.0000   1.0000   1.0000   1.0000   1.0000   1.0000
     1.0000   1.0000  -0.0000  -0.0000  -0.0000  -0.0000  -0.0000  -0.0000
    -0.0000  -0.0000  -0.0000  -0.0000  -0.0000  -0.0000

          k = 0.0000 0.0000 0.5343 (  5393 PWs)   bands (ev):

   -79.3803 -79.3803 -79.3797 -79.3797 -46.2314 -46.2314 -46.2273 -46.2273
   -32.8048 -32.8048 -32.8006 -32.8006 -32.6373 -32.6373 -32.6232 -32.6232
    -6.0956  -6.0956  -5.6148  -5.6148  -5.3507  -5.3507  -5.3060  -5.3060
     5.4589   5.4589   5.7047   5.7047   6.4511   6.4511   6.8509   6.8509
     6.9005   6.9005   7.3409   7.3409   7.5959   7.5959   8.4797   8.4797
     8.6086   8.6086   9.5875   9.5875   9.7577   9.7577   9.9589   9.9589
    11.7919  11.7919  12.1422  12.1422  12.4593  12.4593  13.5921  13.5921
    13.8254  13.8254  14.0993  14.0993  16.0609  16.0609  16.2272  16.2272
    16.5478  16.5478  17.0899  17.0899  21.4163  21.4163

     occupation numbers 
     1.0000   1.0000   1.0000   1.0000   1.0000   1.0000   1.0000   1.0000
     1.0000   1.0000   1.0000   1.0000   1.0000   1.0000   1.0000   1.0000
     1.0000   1.0000   1.0000   1.0000   1.0000   1.0000   1.0000   1.0000
     1.0000   1.0000   1.0000   1.0000   1.0000   1.0000   1.0000   1.0000
     1.0000   1.0000   1.0000   1.0000   1.0000   1.0000   1.0000   1.0000
     1.0000   1.0000   1.0000   1.0000   1.0000   1.0000   1.0000   1.0000
     1.0000   1.0000   1.0000   1.0000   1.0000   1.0000   1.0000   1.0000
     0.9576   0.9576  -0.0000  -0.0000  -0.0000  -0.0000  -0.0000  -0.0000
    -0.0000  -0.0000  -0.0000  -0.0000  -0.0000  -0.0000

          k = 0.0000 0.0000-0.7124 (  5314 PWs)   bands (ev):

   -79.3797 -79.3797 -79.3797 -79.3797 -46.2310 -46.2310 -46.2310 -46.2310
   -32.8122 -32.8122 -32.8122 -32.8122 -32.6310 -32.6310 -32.6310 -32.6310
    -5.7343  -5.7343  -5.7343  -5.7343  -5.4015  -5.4015  -5.4015  -5.4015
     5.7329   5.7329   5.7329   5.7329   6.7021   6.7021   6.7021   6.7021
     7.0980   7.0980   7.0980   7.0980   8.2014   8.2014   8.2014   8.2014
     8.5514   8.5514   8.5514   8.5514   9.9565   9.9565   9.9565   9.9565
    11.8967  11.8967  11.8967  11.8967  13.0829  13.0829  13.0829  13.0829
    14.1205  14.1205  14.1205  14.1205  16.0948  16.0948  16.0948  16.0948
    16.6099  16.6099  16.6099  16.6099  22.9235  22.9235

     occupation numbers 
     1.0000   1.0000   1.0000   1.0000   1.0000   1.0000   1.0000   1.0000
     1.0000   1.0000   1.0000   1.0000   1.0000   1.0000   1.0000   1.0000
     1.0000   1.0000   1.0000   1.0000   1.0000   1.0000   1.0000   1.0000
     1.0000   1.0000   1.0000   1.0000   1.0000   1.0000   1.0000   1.0000
     1.0000   1.0000   1.0000   1.0000   1.0000   1.0000   1.0000   1.0000
     1.0000   1.0000   1.0000   1.0000   1.0000   1.0000   1.0000   1.0000
     1.0000   1.0000   1.0000   1.0000   1.0000   1.0000   1.0000   1.0000
    -0.0000  -0.0000  -0.0000  -0.0000  -0.0000  -0.0000  -0.0000  -0.0000
    -0.0000  -0.0000  -0.0000  -0.0000  -0.0000  -0.0000

          k = 0.0000 0.0909 0.0000 (  5375 PWs)   bands (ev):

   -79.3826 -79.3826 -79.3813 -79.3813 -46.2249 -46.2249 -46.2146 -46.2146
   -32.7637 -32.7637 -32.7535 -32.7535 -32.6208 -32.6208 -32.6070 -32.6070
    -7.0435  -7.0435  -5.9147  -5.9147  -5.0312  -5.0312  -4.8355  -4.8355
     4.3494   4.3494   4.5765   4.5765   6.0456   6.0456   6.1518   6.1518
     6.3096   6.3096   8.7467   8.7467   8.8147   8.8147   9.0749   9.0749
    10.1419  10.1419  10.6758  10.6758  10.8224  10.8224  11.2481  11.2481
    11.3368  11.3368  11.5458  11.5458  11.6446  11.6446  11.7711  11.7711
    12.1759  12.1759  14.7824  14.7824  15.0117  15.0117  17.6586  17.6586
    18.0005  18.0005  18.0420  18.0420  19.3732  19.3732

     occupation numbers 
     1.0000   1.0000   1.0000   1.0000   1.0000   1.0000   1.0000   1.0000
     1.0000   1.0000   1.0000   1.0000   1.0000   1.0000   1.0000   1.0000
     1.0000   1.0000   1.0000   1.0000   1.0000   1.0000   1.0000   1.0000
     1.0000   1.0000   1.0000   1.0000   1.0000   1.0000   1.0000   1.0000
     1.0000   1.0000   1.0000   1.0000   1.0000   1.0000   1.0000   1.0000
     1.0000   1.0000   1.0000   1.0000   1.0000   1.0000   1.0000   1.0000
     1.0000   1.0000   1.0000   1.0000   1.0000   1.0000   1.0000   1.0000
     1.0000   1.0000  -0.0000  -0.0000  -0.0000  -0.0000  -0.0000  -0.0000
    -0.0000  -0.0000  -0.0000  -0.0000  -0.0000  -0.0000

          k = 0.0000 0.0909 0.1781 (  5377 PWs)   bands (ev):

   -79.3822 -79.3822 -79.3811 -79.3811 -46.2262 -46.2262 -46.2167 -46.2167
   -32.7679 -32.7679 -32.7613 -32.7613 -32.6269 -32.6269 -32.6099 -32.6099
    -6.9037  -6.9037  -5.8402  -5.8402  -5.0959  -5.0959  -4.9214  -4.9214
     4.5473   4.5473   4.7241   4.7241   6.1559   6.1559   6.2270   6.2270
     6.4835   6.4835   8.1951   8.1951   8.9151   8.9151   9.1627   9.1627
     9.4540   9.4540  10.1118  10.1118  10.1974  10.1974  11.3484  11.3484
    11.4956  11.4956  11.7794  11.7794  11.8624  11.8624  12.3556  12.3556
    12.5240  12.5240  14.8653  14.8653  15.0982  15.0982  17.2647  17.2647
    17.5783  17.5783  18.4761  18.4761  19.1309  19.1309

     occupation numbers 
     1.0000   1.0000   1.0000   1.0000   1.0000   1.0000   1.0000   1.0000
     1.0000   1.0000   1.0000   1.0000   1.0000   1.0000   1.0000   1.0000
     1.0000   1.0000   1.0000   1.0000   1.0000   1.0000   1.0000   1.0000
     1.0000   1.0000   1.0000   1.0000   1.0000   1.0000   1.0000   1.0000
     1.0000   1.0000   1.0000   1.0000   1.0000   1.0000   1.0000   1.0000
     1.0000   1.0000   1.0000   1.0000   1.0000   1.0000   1.0000   1.0000
     1.0000   1.0000   1.0000   1.0000   1.0000   1.0000   1.0000   1.0000
     1.0000   1.0000  -0.0000  -0.0000  -0.0000  -0.0000  -0.0000  -0.0000
    -0.0000  -0.0000  -0.0000  -0.0000  -0.0000  -0.0000

          k = 0.0000 0.0909 0.3562 (  5380 PWs)   bands (ev):

   -79.3813 -79.3813 -79.3804 -79.3804 -46.2290 -46.2290 -46.2217 -46.2217
   -32.7854 -32.7854 -32.7783 -32.7783 -32.6364 -32.6364 -32.6162 -32.6162
    -6.5354  -6.5354  -5.6848  -5.6848  -5.2405  -5.2405  -5.1218  -5.1218
     5.0720   5.0720   5.1100   5.1100   6.4333   6.4333   6.4779   6.4779
     6.9507   6.9507   7.2221   7.2221   8.1308   8.1308   9.1535   9.1535
     9.3217   9.3217   9.4366   9.4366   9.6458   9.6458  10.6652  10.6652
    11.7744  11.7744  11.9675  11.9675  12.2130  12.2130  13.1285  13.1285
    13.2356  13.2356  14.4865  14.4865  15.7305  15.7305  16.5655  16.5655
    16.8916  16.8916  18.1177  18.1177  19.9266  19.9266

     occupation numbers 
     1.0000   1.0000   1.0000   1.0000   1.0000   1.0000   1.0000   1.0000
     1.0000   1.0000   1.0000   1.0000   1.0000   1.0000   1.0000   1.0000
     1.0000   1.0000   1.0000   1.0000   1.0000   1.0000   1.0000   1.0000
     1.0000   1.0000   1.0000   1.0000   1.0000   1.0000   1.0000   1.0000
     1.0000   1.0000   1.0000   1.0000   1.0000   1.0000   1.0000   1.0000
     1.0000   1.0000   1.0000   1.0000   1.0000   1.0000   1.0000   1.0000
     1.0000   1.0000   1.0000   1.0000   1.0000   1.0000   1.0000   1.0000
     1.0000   1.0000  -0.0000  -0.0000  -0.0000  -0.0000  -0.0000  -0.0000
    -0.0000  -0.0000  -0.0000  -0.0000  -0.0000  -0.0000

          k = 0.0000 0.0909 0.5343 (  5384 PWs)   bands (ev):

   -79.3802 -79.3802 -79.3798 -79.3798 -46.2313 -46.2313 -46.2274 -46.2274
   -32.8073 -32.8073 -32.7981 -32.7981 -32.6376 -32.6376 -32.6230 -32.6230
    -6.0830  -6.0830  -5.6193  -5.6193  -5.3641  -5.3641  -5.3017  -5.3017
     5.4906   5.4906   5.7216   5.7216   6.3237   6.3237   6.7969   6.7969
     6.9992   6.9992   7.3055   7.3055   7.6943   7.6943   8.5024   8.5024
     8.6491   8.6491   9.6022   9.6022   9.7677   9.7677   9.8908   9.8908
    11.8267  11.8267  12.1525  12.1525  12.3732  12.3732  13.4784  13.4784
    13.8164  13.8164  14.1634  14.1634  15.9505  15.9505  16.0813  16.0813
    16.6391  16.6391  17.3336  17.3336  21.4582  21.4582

     occupation numbers 
     1.0000   1.0000   1.0000   1.0000   1.0000   1.0000   1.0000   1.0000
     1.0000   1.0000   1.0000   1.0000   1.0000   1.0000   1.0000   1.0000
     1.0000   1.0000   1.0000   1.0000   1.0000   1.0000   1.0000   1.0000
     1.0000   1.0000   1.0000   1.0000   1.0000   1.0000   1.0000   1.0000
     1.0000   1.0000   1.0000   1.0000   1.0000   1.0000   1.0000   1.0000
     1.0000   1.0000   1.0000   1.0000   1.0000   1.0000   1.0000   1.0000
     1.0000   1.0000   1.0000   1.0000   1.0000   1.0000   1.0000   1.0000
     0.9966   0.9966  -0.0000  -0.0000  -0.0000  -0.0000  -0.0000  -0.0000
    -0.0000  -0.0000  -0.0000  -0.0000  -0.0000  -0.0000

          k = 0.0000 0.0909-0.7124 (  5364 PWs)   bands (ev):

   -79.3797 -79.3797 -79.3797 -79.3797 -46.2313 -46.2313 -46.2307 -46.2307
   -32.8166 -32.8166 -32.8078 -32.8078 -32.6339 -32.6339 -32.6282 -32.6282
    -5.7499  -5.7499  -5.7363  -5.7363  -5.4210  -5.4210  -5.3614  -5.3614
     5.7274   5.7274   5.7554   5.7554   6.4736   6.4736   6.5432   6.5432
     7.2826   7.2826   7.2881   7.2881   8.1474   8.1474   8.2547   8.2547
     8.6294   8.6294   8.6624   8.6624   9.8885   9.8885   9.9161   9.9161
    11.8851  11.8851  11.9117  11.9117  12.9130  12.9130  13.0545  13.0545
    14.0483  14.0483  14.2434  14.2434  15.8191  15.8191  15.9313  15.9313
    16.7891  16.7891  16.9674  16.9674  22.9220  22.9469

     occupation numbers 
     1.0000   1.0000   1.0000   1.0000   1.0000   1.0000   1.0000   1.0000
     1.0000   1.0000   1.0000   1.0000   1.0000   1.0000   1.0000   1.0000
     1.0000   1.0000   1.0000   1.0000   1.0000   1.0000   1.0000   1.0000
     1.0000   1.0000   1.0000   1.0000   1.0000   1.0000   1.0000   1.0000
     1.0000   1.0000   1.0000   1.0000   1.0000   1.0000   1.0000   1.0000
     1.0000   1.0000   1.0000   1.0000   1.0000   1.0000   1.0000   1.0000
     1.0000   1.0000   1.0000   1.0000   1.0000   1.0000   1.0000   1.0000
    -0.0008  -0.0008  -0.0000  -0.0000  -0.0000  -0.0000  -0.0000  -0.0000
    -0.0000  -0.0000  -0.0000  -0.0000  -0.0000  -0.0000

          k = 0.0000 0.1818 0.0000 (  5375 PWs)   bands (ev):

   -79.3825 -79.3825 -79.3814 -79.3814 -46.2243 -46.2243 -46.2153 -46.2153
   -32.7624 -32.7624 -32.7535 -32.7535 -32.6208 -32.6208 -32.6086 -32.6086
    -6.9514  -6.9514  -5.9079  -5.9079  -5.1102  -5.1102  -4.9190  -4.9190
     4.5781   4.5781   4.7521   4.7521   6.0787   6.0787   6.1719   6.1719
     6.4652   6.4652   8.4870   8.4870   8.6146   8.6146   8.8003   8.8003
     9.7872   9.7872  10.1162  10.1162  10.6688  10.6688  11.4814  11.4814
    11.5125  11.5125  11.6049  11.6049  11.8659  11.8659  12.0054  12.0054
    12.4233  12.4233  14.8131  14.8131  15.1864  15.1864  17.5648  17.5648
    17.8765  17.8765  18.4534  18.4534  19.1525  19.1525

     occupation numbers 
     1.0000   1.0000   1.0000   1.0000   1.0000   1.0000   1.0000   1.0000
     1.0000   1.0000   1.0000   1.0000   1.0000   1.0000   1.0000   1.0000
     1.0000   1.0000   1.0000   1.0000   1.0000   1.0000   1.0000   1.0000
     1.0000   1.0000   1.0000   1.0000   1.0000   1.0000   1.0000   1.0000
     1.0000   1.0000   1.0000   1.0000   1.0000   1.0000   1.0000   1.0000
     1.0000   1.0000   1.0000   1.0000   1.0000   1.0000   1.0000   1.0000
     1.0000   1.0000   1.0000   1.0000   1.0000   1.0000   1.0000   1.0000
     1.0000   1.0000  -0.0000  -0.0000  -0.0000  -0.0000  -0.0000  -0.0000
    -0.0000  -0.0000  -0.0000  -0.0000  -0.0000  -0.0000

          k = 0.0000 0.1818 0.1781 (  5370 PWs)   bands (ev):

   -79.3821 -79.3821 -79.3811 -79.3811 -46.2256 -46.2256 -46.2173 -46.2173
   -32.7683 -32.7683 -32.7598 -32.7598 -32.6269 -32.6269 -32.6113 -32.6113
    -6.8156  -6.8156  -5.8274  -5.8274  -5.1734  -5.1734  -4.9984  -4.9984
     4.7537   4.7537   4.8980   4.8980   6.1698   6.1698   6.2329   6.2329
     6.6686   6.6686   8.0861   8.0861   8.5809   8.5809   8.8463   8.8463
     9.1217   9.1217  10.0373  10.0373  10.1975  10.1975  11.3097  11.3097
    11.5294  11.5294  12.0034  12.0034  12.0438  12.0438  12.3834  12.3834
    12.7061  12.7061  14.6928  14.6928  15.4395  15.4395  17.1134  17.1134
    17.4404  17.4404  18.8529  18.8529  19.0333  19.0333

     occupation numbers 
     1.0000   1.0000   1.0000   1.0000   1.0000   1.0000   1.0000   1.0000
     1.0000   1.0000   1.0000   1.0000   1.0000   1.0000   1.0000   1.0000
     1.0000   1.0000   1.0000   1.0000   1.0000   1.0000   1.0000   1.0000
     1.0000   1.0000   1.0000   1.0000   1.0000   1.0000   1.0000   1.0000
     1.0000   1.0000   1.0000   1.0000   1.0000   1.0000   1.0000   1.0000
     1.0000   1.0000   1.0000   1.0000   1.0000   1.0000   1.0000   1.0000
     1.0000   1.0000   1.0000   1.0000   1.0000   1.0000   1.0000   1.0000
     1.0000   1.0000  -0.0000  -0.0000  -0.0000  -0.0000  -0.0000  -0.0000
    -0.0000  -0.0000  -0.0000  -0.0000  -0.0000  -0.0000

          k = 0.0000 0.1818 0.3562 (  5384 PWs)   bands (ev):

   -79.3812 -79.3812 -79.3804 -79.3804 -46.2286 -46.2286 -46.2222 -46.2222
   -32.7881 -32.7881 -32.7751 -32.7751 -32.6363 -32.6363 -32.6170 -32.6170
    -6.4625  -6.4625  -5.6629  -5.6629  -5.3089  -5.3089  -5.1774  -5.1774
     5.2010   5.2010   5.2723   5.2723   6.4012   6.4012   6.4854   6.4854
     7.0666   7.0666   7.2571   7.2571   7.7906   7.7906   8.9307   8.9307
     9.2727   9.2727   9.4661   9.4661   9.5663   9.5663  10.8736  10.8736
    11.5445  11.5445  12.1524  12.1524  12.3498  12.3498  12.9974  12.9974
    13.3253  13.3253  14.3849  14.3849  15.9274  15.9274  16.3291  16.3291
    16.8192  16.8192  18.3067  18.3067  20.1524  20.1524

     occupation numbers 
     1.0000   1.0000   1.0000   1.0000   1.0000   1.0000   1.0000   1.0000
     1.0000   1.0000   1.0000   1.0000   1.0000   1.0000   1.0000   1.0000
     1.0000   1.0000   1.0000   1.0000   1.0000   1.0000   1.0000   1.0000
     1.0000   1.0000   1.0000   1.0000   1.0000   1.0000   1.0000   1.0000
     1.0000   1.0000   1.0000   1.0000   1.0000   1.0000   1.0000   1.0000
     1.0000   1.0000   1.0000   1.0000   1.0000   1.0000   1.0000   1.0000
     1.0000   1.0000   1.0000   1.0000   1.0000   1.0000   1.0000   1.0000
     1.0000   1.0000  -0.0000  -0.0000  -0.0000  -0.0000  -0.0000  -0.0000
    -0.0000  -0.0000  -0.0000  -0.0000  -0.0000  -0.0000

          k = 0.0000 0.1818 0.5343 (  5372 PWs)   bands (ev):

   -79.3802 -79.3802 -79.3798 -79.3798 -46.2311 -46.2311 -46.2276 -46.2276
   -32.8109 -32.8109 -32.7946 -32.7946 -32.6382 -32.6382 -32.6225 -32.6225
    -6.0467  -6.0467  -5.6338  -5.6338  -5.3925  -5.3925  -5.2982  -5.2982
     5.5762   5.5762   5.7670   5.7670   6.1287   6.1287   6.6330   6.6330
     7.1631   7.1631   7.2445   7.2445   7.9256   7.9256   8.5295   8.5295
     8.7730   8.7730   9.4941   9.4941   9.6990   9.6990   9.9878   9.9878
    11.8600  11.8600  12.1286  12.1286  12.2277  12.2277  13.1891  13.1891
    13.8568  13.8568  14.2477  14.2477  15.6925  15.6925  15.8327  15.8327
    16.9457  16.9457  17.7310  17.7310  21.5866  21.5866

     occupation numbers 
     1.0000   1.0000   1.0000   1.0000   1.0000   1.0000   1.0000   1.0000
     1.0000   1.0000   1.0000   1.0000   1.0000   1.0000   1.0000   1.0000
     1.0000   1.0000   1.0000   1.0000   1.0000   1.0000   1.0000   1.0000
     1.0000   1.0000   1.0000   1.0000   1.0000   1.0000   1.0000   1.0000
     1.0000   1.0000   1.0000   1.0000   1.0000   1.0000   1.0000   1.0000
     1.0000   1.0000   1.0000   1.0000   1.0000   1.0000   1.0000   1.0000
     1.0000   1.0000   1.0000   1.0000   1.0000   1.0000   1.0000   1.0000
     0.6913   0.6913  -0.0000  -0.0000  -0.0000  -0.0000  -0.0000  -0.0000
    -0.0000  -0.0000  -0.0000  -0.0000  -0.0000  -0.0000

          k = 0.0000 0.1818-0.7124 (  5378 PWs)   bands (ev):

   -79.3797 -79.3797 -79.3797 -79.3797 -46.2315 -46.2315 -46.2305 -46.2305
   -32.8206 -32.8206 -32.8039 -32.8039 -32.6365 -32.6365 -32.6256 -32.6256
    -5.7736  -5.7736  -5.7568  -5.7568  -5.4176  -5.4176  -5.3123  -5.3123
     5.7094   5.7094   5.7804   5.7804   6.2038   6.2038   6.3175   6.3175
     7.5017   7.5017   7.5585   7.5585   8.1038   8.1038   8.3055   8.3055
     8.8892   8.8892   8.9484   8.9484   9.7390   9.7390   9.7783   9.7783
    11.8834  11.8834  11.9067  11.9067  12.5991  12.5991  12.8325  12.8325
    14.0541  14.0541  14.3585  14.3585  15.5187  15.5187  15.6056  15.6056
    17.2228  17.2228  17.4247  17.4247  22.9415  22.9440

     occupation numbers 
     1.0000   1.0000   1.0000   1.0000   1.0000   1.0000   1.0000   1.0000
     1.0000   1.0000   1.0000   1.0000   1.0000   1.0000   1.0000   1.0000
     1.0000   1.0000   1.0000   1.0000   1.0000   1.0000   1.0000   1.0000
     1.0000   1.0000   1.0000   1.0000   1.0000   1.0000   1.0000   1.0000
     1.0000   1.0000   1.0000   1.0000   1.0000   1.0000   1.0000   1.0000
     1.0000   1.0000   1.0000   1.0000   1.0000   1.0000   1.0000   1.0000
     1.0000   1.0000   1.0000   1.0000   1.0000   1.0000   1.0000   1.0000
    -0.0005  -0.0005  -0.0000  -0.0000  -0.0000  -0.0000  -0.0000  -0.0000
    -0.0000  -0.0000  -0.0000  -0.0000  -0.0000  -0.0000

          k = 0.0000 0.2727 0.0000 (  5382 PWs)   bands (ev):

   -79.3824 -79.3824 -79.3815 -79.3815 -46.2233 -46.2233 -46.2163 -46.2163
   -32.7605 -32.7605 -32.7536 -32.7536 -32.6205 -32.6205 -32.6110 -32.6110
    -6.8041  -6.8041  -5.9227  -5.9227  -5.2193  -5.2193  -5.0236  -5.0236
     4.9143   4.9143   5.0249   5.0249   6.1242   6.1242   6.1989   6.1989
     6.7237   6.7237   8.0572   8.0572   8.2344   8.2344   8.6541   8.6541
     9.4097   9.4097   9.4905   9.4905  10.6040  10.6040  11.3175  11.3175
    11.7620  11.7620  11.8689  11.8689  12.1000  12.1000  12.2680  12.2680
    12.7211  12.7211  14.5396  14.5396  15.7419  15.7419  17.4388  17.4388
    17.7061  17.7061  18.7843  18.7843  19.0595  19.0595

     occupation numbers 
     1.0000   1.0000   1.0000   1.0000   1.0000   1.0000   1.0000   1.0000
     1.0000   1.0000   1.0000   1.0000   1.0000   1.0000   1.0000   1.0000
     1.0000   1.0000   1.0000   1.0000   1.0000   1.0000   1.0000   1.0000
     1.0000   1.0000   1.0000   1.0000   1.0000   1.0000   1.0000   1.0000
     1.0000   1.0000   1.0000   1.0000   1.0000   1.0000   1.0000   1.0000
     1.0000   1.0000   1.0000   1.0000   1.0000   1.0000   1.0000   1.0000
     1.0000   1.0000   1.0000   1.0000   1.0000   1.0000   1.0000   1.0000
     1.0000   1.0000  -0.0000  -0.0000  -0.0000  -0.0000  -0.0000  -0.0000
    -0.0000  -0.0000  -0.0000  -0.0000  -0.0000  -0.0000

          k = 0.0000 0.2727 0.1781 (  5373 PWs)   bands (ev):

   -79.3820 -79.3820 -79.3812 -79.3812 -46.2247 -46.2247 -46.2182 -46.2182
   -32.7686 -32.7686 -32.7581 -32.7581 -32.6266 -32.6266 -32.6133 -32.6133
    -6.6747  -6.6747  -5.8303  -5.8303  -5.2845  -5.2845  -5.0941  -5.0941
     5.0599   5.0599   5.1718   5.1718   6.1978   6.1978   6.2471   6.2471
     6.9214   6.9214   8.0032   8.0032   8.1850   8.1850   8.4196   8.4196
     8.6589   8.6589   9.6995   9.6995  10.3656  10.3656  11.1685  11.1685
    11.7434  11.7434  12.1113  12.1113  12.2574  12.2574  12.5324  12.5324
    12.9395  12.9395  14.4351  14.4351  15.9179  15.9179  16.9405  16.9405
    17.2784  17.2784  18.6715  18.6715  19.5296  19.5296

     occupation numbers 
     1.0000   1.0000   1.0000   1.0000   1.0000   1.0000   1.0000   1.0000
     1.0000   1.0000   1.0000   1.0000   1.0000   1.0000   1.0000   1.0000
     1.0000   1.0000   1.0000   1.0000   1.0000   1.0000   1.0000   1.0000
     1.0000   1.0000   1.0000   1.0000   1.0000   1.0000   1.0000   1.0000
     1.0000   1.0000   1.0000   1.0000   1.0000   1.0000   1.0000   1.0000
     1.0000   1.0000   1.0000   1.0000   1.0000   1.0000   1.0000   1.0000
     1.0000   1.0000   1.0000   1.0000   1.0000   1.0000   1.0000   1.0000
     1.0000   1.0000  -0.0000  -0.0000  -0.0000  -0.0000  -0.0000  -0.0000
    -0.0000  -0.0000  -0.0000  -0.0000  -0.0000  -0.0000

          k = 0.0000 0.2727 0.3562 (  5372 PWs)   bands (ev):

   -79.3811 -79.3811 -79.3805 -79.3805 -46.2279 -46.2279 -46.2229 -46.2229
   -32.7903 -32.7903 -32.7723 -32.7723 -32.6361 -32.6361 -32.6180 -32.6180
    -6.3458  -6.3458  -5.6348  -5.6348  -5.4234  -5.4234  -5.2453  -5.2453
     5.4123   5.4123   5.5104   5.5104   6.3923   6.3923   6.5070   6.5070
     6.9689   6.9689   7.4006   7.4006   7.5763   7.5763   8.5682   8.5682
     8.9090   8.9090   9.4602   9.4602   9.7924   9.7924  11.0016  11.0016
    11.3977  11.3977  12.3445  12.3445  12.4717  12.4717  12.8768  12.8768
    13.4332  13.4332  14.2404  14.2404  15.9878  15.9878  16.1337  16.1337
    16.9062  16.9062  18.3697  18.3697  20.5571  20.5571

     occupation numbers 
     1.0000   1.0000   1.0000   1.0000   1.0000   1.0000   1.0000   1.0000
     1.0000   1.0000   1.0000   1.0000   1.0000   1.0000   1.0000   1.0000
     1.0000   1.0000   1.0000   1.0000   1.0000   1.0000   1.0000   1.0000
     1.0000   1.0000   1.0000   1.0000   1.0000   1.0000   1.0000   1.0000
     1.0000   1.0000   1.0000   1.0000   1.0000   1.0000   1.0000   1.0000
     1.0000   1.0000   1.0000   1.0000   1.0000   1.0000   1.0000   1.0000
     1.0000   1.0000   1.0000   1.0000   1.0000   1.0000   1.0000   1.0000
     1.0000   1.0000  -0.0000  -0.0000  -0.0000  -0.0000  -0.0000  -0.0000
    -0.0000  -0.0000  -0.0000  -0.0000  -0.0000  -0.0000

          k = 0.0000 0.2727 0.5343 (  5376 PWs)   bands (ev):

   -79.3802 -79.3802 -79.3798 -79.3798 -46.2309 -46.2309 -46.2279 -46.2279
   -32.8139 -32.8139 -32.7916 -32.7916 -32.6391 -32.6391 -32.6218 -32.6218
    -5.9906  -5.9906  -5.6621  -5.6621  -5.4226  -5.4226  -5.3001  -5.3001
     5.6786   5.6786   5.8160   5.8160   6.0092   6.0092   6.4381   6.4381
     7.1479   7.1479   7.3791   7.3791   8.0749   8.0749   8.6301   8.6301
     8.9261   8.9261   9.2772   9.2772   9.5692   9.5692  10.3269  10.3269
    11.6261  11.6261  12.1111  12.1111  12.2155  12.2155  12.8497  12.8497
    13.9128  13.9128  14.3072  14.3072  15.4155  15.4155  15.6235  15.6235
    17.3323  17.3323  18.0625  18.0625  21.8084  21.8084

     occupation numbers 
     1.0000   1.0000   1.0000   1.0000   1.0000   1.0000   1.0000   1.0000
     1.0000   1.0000   1.0000   1.0000   1.0000   1.0000   1.0000   1.0000
     1.0000   1.0000   1.0000   1.0000   1.0000   1.0000   1.0000   1.0000
     1.0000   1.0000   1.0000   1.0000   1.0000   1.0000   1.0000   1.0000
     1.0000   1.0000   1.0000   1.0000   1.0000   1.0000   1.0000   1.0000
     1.0000   1.0000   1.0000   1.0000   1.0000   1.0000   1.0000   1.0000
     1.0000   1.0000   1.0000   1.0000   1.0000   1.0000   1.0000   1.0000
     0.0845   0.0845  -0.0000  -0.0000  -0.0000  -0.0000  -0.0000  -0.0000
    -0.0000  -0.0000  -0.0000  -0.0000  -0.0000  -0.0000

          k = 0.0000 0.2727-0.7124 (  5352 PWs)   bands (ev):

   -79.3797 -79.3797 -79.3797 -79.3797 -46.2317 -46.2317 -46.2303 -46.2303
   -32.8241 -32.8241 -32.8007 -32.8007 -32.6386 -32.6386 -32.6234 -32.6234
    -5.7972  -5.7972  -5.7854  -5.7854  -5.4010  -5.4010  -5.2657  -5.2657
     5.6323   5.6323   5.7166   5.7166   6.0999   6.0999   6.2080   6.2080
     7.6050   7.6050   7.7859   7.7859   8.1362   8.1362   8.3547   8.3547
     9.2206   9.2206   9.2649   9.2649   9.6378   9.6378   9.6466   9.6466
    11.8291  11.8291  11.8845  11.8845  12.1847  12.1847  12.5307  12.5307
    14.0954  14.0954  14.4407  14.4407  15.2793  15.2793  15.3393  15.3393
    17.6560  17.6560  17.8530  17.8530  22.9871  22.9876

     occupation numbers 
     1.0000   1.0000   1.0000   1.0000   1.0000   1.0000   1.0000   1.0000
     1.0000   1.0000   1.0000   1.0000   1.0000   1.0000   1.0000   1.0000
     1.0000   1.0000   1.0000   1.0000   1.0000   1.0000   1.0000   1.0000
     1.0000   1.0000   1.0000   1.0000   1.0000   1.0000   1.0000   1.0000
     1.0000   1.0000   1.0000   1.0000   1.0000   1.0000   1.0000   1.0000
     1.0000   1.0000   1.0000   1.0000   1.0000   1.0000   1.0000   1.0000
     1.0000   1.0000   1.0000   1.0000   1.0000   1.0000   1.0000   1.0000
    -0.0000  -0.0000  -0.0000  -0.0000  -0.0000  -0.0000  -0.0000  -0.0000
    -0.0000  -0.0000  -0.0000  -0.0000  -0.0000  -0.0000

          k = 0.0000 0.3636 0.0000 (  5366 PWs)   bands (ev):

   -79.3822 -79.3822 -79.3817 -79.3817 -46.2220 -46.2220 -46.2176 -46.2176
   -32.7584 -32.7584 -32.7540 -32.7540 -32.6197 -32.6197 -32.6138 -32.6138
    -6.6121  -6.6121  -6.0046  -6.0046  -5.2956  -5.2956  -5.1300  -5.1300
     5.2838   5.2838   5.3529   5.3529   6.1762   6.1762   6.2242   6.2242
     7.0669   7.0669   7.6466   7.6466   7.7571   7.7571   8.6203   8.6203
     8.8099   8.8099   9.1164   9.1164  10.6366  10.6366  11.1178  11.1178
    11.9589  11.9589  12.0689  12.0689  12.2899  12.2899  12.4630  12.4630
    13.0669  13.0669  14.2017  14.2017  16.3835  16.3835  17.3298  17.3298
    17.5341  17.5341  18.3159  18.3159  19.7405  19.7405

     occupation numbers 
     1.0000   1.0000   1.0000   1.0000   1.0000   1.0000   1.0000   1.0000
     1.0000   1.0000   1.0000   1.0000   1.0000   1.0000   1.0000   1.0000
     1.0000   1.0000   1.0000   1.0000   1.0000   1.0000   1.0000   1.0000
     1.0000   1.0000   1.0000   1.0000   1.0000   1.0000   1.0000   1.0000
     1.0000   1.0000   1.0000   1.0000   1.0000   1.0000   1.0000   1.0000
     1.0000   1.0000   1.0000   1.0000   1.0000   1.0000   1.0000   1.0000
     1.0000   1.0000   1.0000   1.0000   1.0000   1.0000   1.0000   1.0000
     1.0000   1.0000  -0.0000  -0.0000  -0.0000  -0.0000  -0.0000  -0.0000
    -0.0000  -0.0000  -0.0000  -0.0000  -0.0000  -0.0000

          k = 0.0000 0.3636 0.1781 (  5375 PWs)   bands (ev):

   -79.3819 -79.3819 -79.3814 -79.3814 -46.2235 -46.2235 -46.2194 -46.2194
   -32.7687 -32.7687 -32.7566 -32.7566 -32.6262 -32.6262 -32.6153 -32.6153
    -6.4907  -6.4907  -5.9004  -5.9004  -5.3621  -5.3621  -5.1922  -5.1922
     5.4096   5.4096   5.5099   5.5099   6.2038   6.2038   6.2551   6.2551
     7.1976   7.1976   7.8001   7.8001   7.9377   7.9377   8.1175   8.1175
     8.1926   8.1926   9.2345   9.2345  10.5620  10.5620  11.0447  11.0447
    11.9167  11.9167  12.1135  12.1135  12.5017  12.5017  12.7105  12.7105
    13.1882  13.1882  14.1288  14.1288  16.4059  16.4059  16.8200  16.8200
    17.1612  17.1612  18.2925  18.2925  20.1891  20.1891

     occupation numbers 
     1.0000   1.0000   1.0000   1.0000   1.0000   1.0000   1.0000   1.0000
     1.0000   1.0000   1.0000   1.0000   1.0000   1.0000   1.0000   1.0000
     1.0000   1.0000   1.0000   1.0000   1.0000   1.0000   1.0000   1.0000
     1.0000   1.0000   1.0000   1.0000   1.0000   1.0000   1.0000   1.0000
     1.0000   1.0000   1.0000   1.0000   1.0000   1.0000   1.0000   1.0000
     1.0000   1.0000   1.0000   1.0000   1.0000   1.0000   1.0000   1.0000
     1.0000   1.0000   1.0000   1.0000   1.0000   1.0000   1.0000   1.0000
     1.0000   1.0000  -0.0000  -0.0000  -0.0000  -0.0000  -0.0000  -0.0000
    -0.0000  -0.0000  -0.0000  -0.0000  -0.0000  -0.0000

          k = 0.0000 0.3636 0.3562 (  5368 PWs)   bands (ev):

   -79.3810 -79.3810 -79.3806 -79.3806 -46.2271 -46.2271 -46.2237 -46.2237
   -32.7918 -32.7918 -32.7703 -32.7703 -32.6359 -32.6359 -32.6191 -32.6191
    -6.1931  -6.1931  -5.6656  -5.6656  -5.5089  -5.5089  -5.3159  -5.3159
     5.6757   5.6757   5.7876   5.7876   6.4007   6.4007   6.5423   6.5423
     6.8248   6.8248   7.0528   7.0528   7.9199   7.9199   8.2811   8.2811
     8.5561   8.5561   9.2855   9.2855  10.0644  10.0644  10.7871  10.7871
    11.6367  11.6367  12.3528  12.3528  12.5664  12.5664  12.8672  12.8672
    13.5279  13.5279  14.1029  14.1029  15.8367  15.8367  16.0229  16.0229
    17.2280  17.2280  18.2573  18.2573  21.0943  21.0943

     occupation numbers 
     1.0000   1.0000   1.0000   1.0000   1.0000   1.0000   1.0000   1.0000
     1.0000   1.0000   1.0000   1.0000   1.0000   1.0000   1.0000   1.0000
     1.0000   1.0000   1.0000   1.0000   1.0000   1.0000   1.0000   1.0000
     1.0000   1.0000   1.0000   1.0000   1.0000   1.0000   1.0000   1.0000
     1.0000   1.0000   1.0000   1.0000   1.0000   1.0000   1.0000   1.0000
     1.0000   1.0000   1.0000   1.0000   1.0000   1.0000   1.0000   1.0000
     1.0000   1.0000   1.0000   1.0000   1.0000   1.0000   1.0000   1.0000
     1.0000   1.0000  -0.0000  -0.0000  -0.0000  -0.0000  -0.0000  -0.0000
    -0.0000  -0.0000  -0.0000  -0.0000  -0.0000  -0.0000

          k = 0.0000 0.3636 0.5343 (  5369 PWs)   bands (ev):

   -79.3801 -79.3801 -79.3799 -79.3799 -46.2306 -46.2306 -46.2282 -46.2282
   -32.8161 -32.8161 -32.7894 -32.7894 -32.6397 -32.6397 -32.6213 -32.6213
    -5.9205  -5.9205  -5.7079  -5.7079  -5.4458  -5.4458  -5.3048  -5.3048
     5.7306   5.7306   5.8210   5.8210   6.0384   6.0384   6.2869   6.2869
     7.1197   7.1197   7.5045   7.5045   8.1102   8.1102   8.7604   8.7604
     8.9835   8.9835   9.0505   9.0505   9.6945   9.6945  10.6621  10.6621
    11.2724  11.2724  12.0653  12.0653  12.1889  12.1889  12.5991  12.5991
    13.9576  13.9576  14.3486  14.3486  15.2376  15.2376  15.4241  15.4241
    17.7152  17.7152  18.2446  18.2446  22.1276  22.1276

     occupation numbers 
     1.0000   1.0000   1.0000   1.0000   1.0000   1.0000   1.0000   1.0000
     1.0000   1.0000   1.0000   1.0000   1.0000   1.0000   1.0000   1.0000
     1.0000   1.0000   1.0000   1.0000   1.0000   1.0000   1.0000   1.0000
     1.0000   1.0000   1.0000   1.0000   1.0000   1.0000   1.0000   1.0000
     1.0000   1.0000   1.0000   1.0000   1.0000   1.0000   1.0000   1.0000
     1.0000   1.0000   1.0000   1.0000   1.0000   1.0000   1.0000   1.0000
     1.0000   1.0000   1.0000   1.0000   1.0000   1.0000   1.0000   1.0000
    -0.0354  -0.0354  -0.0000  -0.0000  -0.0000  -0.0000  -0.0000  -0.0000
    -0.0000  -0.0000  -0.0000  -0.0000  -0.0000  -0.0000

          k = 0.0000 0.3636-0.7124 (  5360 PWs)   bands (ev):

   -79.3797 -79.3797 -79.3797 -79.3797 -46.2319 -46.2319 -46.2301 -46.2301
   -32.8266 -32.8266 -32.7984 -32.7984 -32.6401 -32.6401 -32.6219 -32.6219
    -5.8153  -5.8153  -5.8105  -5.8105  -5.3832  -5.3832  -5.2300  -5.2300
     5.5236   5.5236   5.5822   5.5822   6.1489   6.1489   6.1986   6.1986
     7.5849   7.5849   7.9648   7.9648   8.2799   8.2799   8.4327   8.4327
     9.1493   9.1493   9.1661   9.1661   9.9622   9.9622  10.0019  10.0019
    11.5773  11.5773  11.6784  11.6784  11.9065  11.9065  12.3152  12.3152
    14.1354  14.1354  14.4865  14.4865  15.1144  15.1144  15.1615  15.1615
    18.0052  18.0052  18.1878  18.1878  23.0564  23.0608

     occupation numbers 
     1.0000   1.0000   1.0000   1.0000   1.0000   1.0000   1.0000   1.0000
     1.0000   1.0000   1.0000   1.0000   1.0000   1.0000   1.0000   1.0000
     1.0000   1.0000   1.0000   1.0000   1.0000   1.0000   1.0000   1.0000
     1.0000   1.0000   1.0000   1.0000   1.0000   1.0000   1.0000   1.0000
     1.0000   1.0000   1.0000   1.0000   1.0000   1.0000   1.0000   1.0000
     1.0000   1.0000   1.0000   1.0000   1.0000   1.0000   1.0000   1.0000
     1.0000   1.0000   1.0000   1.0000   1.0000   1.0000   1.0000   1.0000
    -0.0000  -0.0000  -0.0000  -0.0000  -0.0000  -0.0000  -0.0000  -0.0000
    -0.0000  -0.0000  -0.0000  -0.0000  -0.0000  -0.0000

          k = 0.0000 0.4545 0.0000 (  5374 PWs)   bands (ev):

   -79.3821 -79.3821 -79.3819 -79.3819 -46.2206 -46.2206 -46.2191 -46.2191
   -32.7565 -32.7565 -32.7550 -32.7550 -32.6184 -32.6184 -32.6163 -32.6163
    -6.3927  -6.3927  -6.1747  -6.1747  -5.2916  -5.2916  -5.2258  -5.2258
     5.5707   5.5707   5.6042   5.6042   6.2260   6.2260   6.2409   6.2409
     7.2455   7.2455   7.3646   7.3646   7.6519   7.6519   8.1712   8.1712
     8.7016   8.7016   8.8635   8.8635  10.7483  10.7483  10.9175  10.9175
    12.0886  12.0886  12.1369  12.1369  12.4517  12.4517  12.5265  12.5265
    13.4448  13.4448  13.8297  13.8297  17.0147  17.0147  17.2718  17.2718
    17.4339  17.4339  17.7647  17.7647  20.4390  20.4390

     occupation numbers 
     1.0000   1.0000   1.0000   1.0000   1.0000   1.0000   1.0000   1.0000
     1.0000   1.0000   1.0000   1.0000   1.0000   1.0000   1.0000   1.0000
     1.0000   1.0000   1.0000   1.0000   1.0000   1.0000   1.0000   1.0000
     1.0000   1.0000   1.0000   1.0000   1.0000   1.0000   1.0000   1.0000
     1.0000   1.0000   1.0000   1.0000   1.0000   1.0000   1.0000   1.0000
     1.0000   1.0000   1.0000   1.0000   1.0000   1.0000   1.0000   1.0000
     1.0000   1.0000   1.0000   1.0000   1.0000   1.0000   1.0000   1.0000
     1.0000   1.0000   0.9337   0.9337  -0.0000  -0.0000  -0.0000  -0.0000
    -0.0000  -0.0000  -0.0000  -0.0000  -0.0000  -0.0000

          k = 0.0000 0.4545 0.1781 (  5371 PWs)   bands (ev):

   -79.3817 -79.3817 -79.3815 -79.3815 -46.2223 -46.2223 -46.2207 -46.2207
   -32.7687 -32.7687 -32.7558 -32.7558 -32.6258 -32.6258 -32.6167 -32.6167
    -6.2796  -6.2796  -6.0652  -6.0652  -5.3550  -5.3550  -5.2817  -5.2817
     5.7060   5.7060   5.8116   5.8116   6.1666   6.1666   6.2056   6.2056
     7.4437   7.4437   7.5729   7.5729   7.6722   7.6722   7.8061   7.8061
     8.3292   8.3292   8.7541   8.7541  10.7457  10.7457  10.9081  10.9081
    12.0267  12.0267  12.0911  12.0911  12.6684  12.6684  12.8172  12.8172
    13.4336  13.4336  13.8278  13.8278  16.6049  16.6049  16.8150  16.8150
    17.3473  17.3473  17.8257  17.8257  20.8637  20.8637

     occupation numbers 
     1.0000   1.0000   1.0000   1.0000   1.0000   1.0000   1.0000   1.0000
     1.0000   1.0000   1.0000   1.0000   1.0000   1.0000   1.0000   1.0000
     1.0000   1.0000   1.0000   1.0000   1.0000   1.0000   1.0000   1.0000
     1.0000   1.0000   1.0000   1.0000   1.0000   1.0000   1.0000   1.0000
     1.0000   1.0000   1.0000   1.0000   1.0000   1.0000   1.0000   1.0000
     1.0000   1.0000   1.0000   1.0000   1.0000   1.0000   1.0000   1.0000
     1.0000   1.0000   1.0000   1.0000   1.0000   1.0000   1.0000   1.0000
     1.0000   1.0000   0.9444   0.9444  -0.0000  -0.0000  -0.0000  -0.0000
    -0.0000  -0.0000  -0.0000  -0.0000  -0.0000  -0.0000

          k = 0.0000 0.4545 0.3562 (  5389 PWs)   bands (ev):

   -79.3809 -79.3809 -79.3808 -79.3808 -46.2263 -46.2263 -46.2245 -46.2245
   -32.7925 -32.7925 -32.7692 -32.7692 -32.6357 -32.6357 -32.6197 -32.6197
    -6.0159  -6.0159  -5.8258  -5.8258  -5.4827  -5.4827  -5.3794  -5.3794
     5.9219   5.9219   6.0038   6.0038   6.4375   6.4375   6.5536   6.5536
     6.6824   6.6824   6.7789   6.7789   8.0420   8.0420   8.1577   8.1577
     8.5732   8.5732   8.9547   8.9547  10.3196  10.3196  10.5515  10.5515
    11.9225  11.9225  12.1796  12.1796  12.6406  12.6406  12.9074  12.9074
    13.5768  13.5768  14.0256  14.0256  15.7638  15.7638  15.9019  15.9019
    17.6257  17.6257  17.9989  17.9989  21.6872  21.6872

     occupation numbers 
     1.0000   1.0000   1.0000   1.0000   1.0000   1.0000   1.0000   1.0000
     1.0000   1.0000   1.0000   1.0000   1.0000   1.0000   1.0000   1.0000
     1.0000   1.0000   1.0000   1.0000   1.0000   1.0000   1.0000   1.0000
     1.0000   1.0000   1.0000   1.0000   1.0000   1.0000   1.0000   1.0000
     1.0000   1.0000   1.0000   1.0000   1.0000   1.0000   1.0000   1.0000
     1.0000   1.0000   1.0000   1.0000   1.0000   1.0000   1.0000   1.0000
     1.0000   1.0000   1.0000   1.0000   1.0000   1.0000   1.0000   1.0000
     1.0000   1.0000  -0.0033  -0.0033  -0.0000  -0.0000  -0.0000  -0.0000
    -0.0000  -0.0000  -0.0000  -0.0000  -0.0000  -0.0000

          k = 0.0000 0.4545 0.5343 (  5378 PWs)   bands (ev):

   -79.3800 -79.3800 -79.3800 -79.3800 -46.2303 -46.2303 -46.2284 -46.2284
   -32.8173 -32.8173 -32.7883 -32.7883 -32.6401 -32.6401 -32.6210 -32.6210
    -5.8443  -5.8443  -5.7706  -5.7706  -5.4578  -5.4578  -5.3086  -5.3086
     5.7447   5.7447   5.7948   5.7948   6.1270   6.1270   6.2025   6.2025
     7.1404   7.1404   7.4808   7.4808   8.2844   8.2844   8.5768   8.5768
     8.9324   8.9324   9.0617   9.0617  10.0779  10.0779  10.5271  10.5271
    11.3564  11.3564  11.7411  11.7411  12.2136  12.2136  12.5276  12.5276
    13.9818  13.9818  14.3714  14.3714  15.1893  15.1893  15.2652  15.2652
    18.0147  18.0147  18.2524  18.2524  22.5330  22.5331

     occupation numbers 
     1.0000   1.0000   1.0000   1.0000   1.0000   1.0000   1.0000   1.0000
     1.0000   1.0000   1.0000   1.0000   1.0000   1.0000   1.0000   1.0000
     1.0000   1.0000   1.0000   1.0000   1.0000   1.0000   1.0000   1.0000
     1.0000   1.0000   1.0000   1.0000   1.0000   1.0000   1.0000   1.0000
     1.0000   1.0000   1.0000   1.0000   1.0000   1.0000   1.0000   1.0000
     1.0000   1.0000   1.0000   1.0000   1.0000   1.0000   1.0000   1.0000
     1.0000   1.0000   1.0000   1.0000   1.0000   1.0000   1.0000   1.0000
    -0.0228  -0.0228  -0.0000  -0.0000  -0.0000  -0.0000  -0.0000  -0.0000
    -0.0000  -0.0000  -0.0000  -0.0000  -0.0000  -0.0000

          k = 0.0000 0.4545-0.7124 (  5352 PWs)   bands (ev):

   -79.3797 -79.3797 -79.3797 -79.3797 -46.2320 -46.2320 -46.2301 -46.2301
   -32.8278 -32.8278 -32.7973 -32.7973 -32.6409 -32.6409 -32.6211 -32.6211
    -5.8249  -5.8249  -5.8248  -5.8248  -5.3724  -5.3724  -5.2108  -5.2108
     5.4533   5.4533   5.4978   5.4978   6.2052   6.2052   6.2132   6.2132
[...]
     1.0000   1.0000   1.0000   1.0000   1.0000   1.0000   1.0000   1.0000
     1.0000   1.0000   1.0001   1.0001  -0.0000  -0.0000  -0.0000  -0.0000
    -0.0000  -0.0000  -0.0000  -0.0000  -0.0000  -0.0000

          k = 0.3636 0.4545 0.5343 (  5360 PWs)   bands (ev):

   -79.3800 -79.3800 -79.3800 -79.3800 -46.2298 -46.2298 -46.2290 -46.2290
   -32.8093 -32.8093 -32.7966 -32.7966 -32.6349 -32.6349 -32.6266 -32.6266
    -5.7685  -5.7685  -5.7324  -5.7324  -5.4624  -5.4624  -5.3827  -5.3827
     5.5300   5.5300   5.5827   5.5827   6.1108   6.1108   6.2470   6.2470
     6.9235   6.9235   7.1143   7.1143   8.4210   8.4210   8.5136   8.5136
     9.3474   9.3474   9.4821   9.4821  10.2694  10.2694  10.4991  10.4991
    11.9450  11.9450  12.0155  12.0155  12.3567  12.3567  12.7415  12.7415
    13.3822  13.3822  13.7781  13.7781  15.8150  15.8150  16.0939  16.0939
    17.2059  17.2059  17.4875  17.4875  22.7865  22.7867

     occupation numbers 
     1.0000   1.0000   1.0000   1.0000   1.0000   1.0000   1.0000   1.0000
     1.0000   1.0000   1.0000   1.0000   1.0000   1.0000   1.0000   1.0000
     1.0000   1.0000   1.0000   1.0000   1.0000   1.0000   1.0000   1.0000
     1.0000   1.0000   1.0000   1.0000   1.0000   1.0000   1.0000   1.0000
     1.0000   1.0000   1.0000   1.0000   1.0000   1.0000   1.0000   1.0000
     1.0000   1.0000   1.0000   1.0000   1.0000   1.0000   1.0000   1.0000
     1.0000   1.0000   1.0000   1.0000   1.0000   1.0000   1.0000   1.0000
     1.0000   1.0000   1.0322   1.0322  -0.0000  -0.0000  -0.0000  -0.0000
    -0.0000  -0.0000  -0.0000  -0.0000  -0.0000  -0.0000

          k = 0.3636 0.4545-0.7124 (  5372 PWs)   bands (ev):

   -79.3797 -79.3797 -79.3797 -79.3797 -46.2315 -46.2315 -46.2306 -46.2306
   -32.8191 -32.8191 -32.8058 -32.8058 -32.6358 -32.6358 -32.6271 -32.6271
    -5.7152  -5.7152  -5.6473  -5.6473  -5.4921  -5.4921  -5.3662  -5.3662
     5.6526   5.6526   5.8029   5.8029   5.9902   5.9902   6.2553   6.2553
     6.7577   6.7577   7.1183   7.1183   8.2056   8.2056   8.3127   8.3127
     9.5596   9.5596   9.6464   9.6464  10.5044  10.5044  10.6988  10.6988
    11.8187  11.8187  11.9285  11.9285  12.1720  12.1720  12.5784  12.5784
    13.4957  13.4957  13.8988  13.8988  15.6040  15.6040  15.9136  15.9136
    17.2163  17.2163  17.5449  17.5449  23.0913  23.0918

     occupation numbers 
     1.0000   1.0000   1.0000   1.0000   1.0000   1.0000   1.0000   1.0000
     1.0000   1.0000   1.0000   1.0000   1.0000   1.0000   1.0000   1.0000
     1.0000   1.0000   1.0000   1.0000   1.0000   1.0000   1.0000   1.0000
     1.0000   1.0000   1.0000   1.0000   1.0000   1.0000   1.0000   1.0000
     1.0000   1.0000   1.0000   1.0000   1.0000   1.0000   1.0000   1.0000
     1.0000   1.0000   1.0000   1.0000   1.0000   1.0000   1.0000   1.0000
     1.0000   1.0000   1.0000   1.0000   1.0000   1.0000   1.0000   1.0000
     1.0000   1.0000   0.2000   0.2000  -0.0000  -0.0000  -0.0000  -0.0000
    -0.0000  -0.0000  -0.0000  -0.0000  -0.0000  -0.0000

          k = 0.4545 0.4545 0.0000 (  5404 PWs)   bands (ev):

   -79.3820 -79.3820 -79.3820 -79.3820 -46.2200 -46.2200 -46.2198 -46.2198
   -32.7585 -32.7585 -32.7581 -32.7581 -32.6153 -32.6153 -32.6149 -32.6149
    -6.4225  -6.4225  -6.3937  -6.3937  -5.0563  -5.0563  -5.0340  -5.0340
     4.4000   4.4000   4.4673   4.4673   6.0133   6.0133   6.0245   6.0245
     8.4214   8.4214   8.7179   8.7179   8.7621   8.7621   9.0624   9.0624
     9.5223   9.5223   9.5961   9.5961  10.1596  10.1596  10.3836  10.3836
    11.1335  11.1335  11.2798  11.2798  11.7571  11.7571  11.8266  11.8266
    14.0164  14.0164  14.0657  14.0657  16.2159  16.2159  16.3335  16.3335
    17.8867  17.8867  17.9291  17.9291  22.1471  22.1471

     occupation numbers 
     1.0000   1.0000   1.0000   1.0000   1.0000   1.0000   1.0000   1.0000
     1.0000   1.0000   1.0000   1.0000   1.0000   1.0000   1.0000   1.0000
     1.0000   1.0000   1.0000   1.0000   1.0000   1.0000   1.0000   1.0000
     1.0000   1.0000   1.0000   1.0000   1.0000   1.0000   1.0000   1.0000
     1.0000   1.0000   1.0000   1.0000   1.0000   1.0000   1.0000   1.0000
     1.0000   1.0000   1.0000   1.0000   1.0000   1.0000   1.0000   1.0000
     1.0000   1.0000   1.0000   1.0000   1.0000   1.0000   1.0000   1.0000
    -0.0055  -0.0055  -0.0002  -0.0002  -0.0000  -0.0000  -0.0000  -0.0000
    -0.0000  -0.0000  -0.0000  -0.0000  -0.0000  -0.0000

          k = 0.4545 0.4545 0.1781 (  5396 PWs)   bands (ev):

   -79.3816 -79.3816 -79.3816 -79.3816 -46.2216 -46.2216 -46.2214 -46.2214
   -32.7657 -32.7657 -32.7631 -32.7631 -32.6204 -32.6204 -32.6186 -32.6186
    -6.3101  -6.3101  -6.2821  -6.2821  -5.1273  -5.1273  -5.1053  -5.1053
     4.5649   4.5649   4.6307   4.6307   6.0155   6.0155   6.0286   6.0286
     8.5615   8.5615   8.6927   8.6927   8.8521   8.8521   8.9544   8.9544
     9.1338   9.1338   9.2994   9.2994   9.7798   9.7798   9.9275   9.9275
    11.5304  11.5304  11.6470  11.6470  12.1229  12.1229  12.1712  12.1712
    13.8551  13.8551  13.9027  13.9027  16.4143  16.4143  16.5172  16.5172
    17.5297  17.5297  17.5803  17.5803  22.3505  22.3511

     occupation numbers 
     1.0000   1.0000   1.0000   1.0000   1.0000   1.0000   1.0000   1.0000
     1.0000   1.0000   1.0000   1.0000   1.0000   1.0000   1.0000   1.0000
     1.0000   1.0000   1.0000   1.0000   1.0000   1.0000   1.0000   1.0000
     1.0000   1.0000   1.0000   1.0000   1.0000   1.0000   1.0000   1.0000
     1.0000   1.0000   1.0000   1.0000   1.0000   1.0000   1.0000   1.0000
     1.0000   1.0000   1.0000   1.0000   1.0000   1.0000   1.0000   1.0000
     1.0000   1.0000   1.0000   1.0000   1.0000   1.0000   1.0000   1.0000
     0.7100   0.7100   0.1631   0.1631  -0.0000  -0.0000  -0.0000  -0.0000
    -0.0000  -0.0000  -0.0000  -0.0000  -0.0000  -0.0000

          k = 0.4545 0.4545 0.3562 (  5374 PWs)   bands (ev):

   -79.3808 -79.3808 -79.3808 -79.3808 -46.2256 -46.2256 -46.2253 -46.2253
   -32.7844 -32.7844 -32.7797 -32.7797 -32.6285 -32.6285 -32.6254 -32.6254
    -6.0309  -6.0309  -6.0073  -6.0073  -5.2930  -5.2930  -5.2706  -5.2706
     4.9999   4.9999   5.0554   5.0554   6.0679   6.0679   6.0878   6.0878
     7.7502   7.7502   7.8334   7.8334   8.7984   8.7984   8.9441   8.9441
     9.1701   9.1701   9.2620   9.2620   9.7995   9.7995   9.9369   9.9369
    11.9035  11.9035  11.9776  11.9776  12.6256  12.6256  12.7117  12.7117
    13.4529  13.4529  13.5463  13.5463  16.5138  16.5138  16.6289  16.6289
    17.0532  17.0532  17.1566  17.1566  22.6719  22.6725

     occupation numbers 
     1.0000   1.0000   1.0000   1.0000   1.0000   1.0000   1.0000   1.0000
     1.0000   1.0000   1.0000   1.0000   1.0000   1.0000   1.0000   1.0000
     1.0000   1.0000   1.0000   1.0000   1.0000   1.0000   1.0000   1.0000
     1.0000   1.0000   1.0000   1.0000   1.0000   1.0000   1.0000   1.0000
     1.0000   1.0000   1.0000   1.0000   1.0000   1.0000   1.0000   1.0000
     1.0000   1.0000   1.0000   1.0000   1.0000   1.0000   1.0000   1.0000
     1.0000   1.0000   1.0000   1.0000   1.0000   1.0000   1.0000   1.0000
     1.0000   1.0000   1.0000   1.0000  -0.0000  -0.0000  -0.0000  -0.0000
    -0.0000  -0.0000  -0.0000  -0.0000  -0.0000  -0.0000

          k = 0.4545 0.4545 0.5343 (  5348 PWs)   bands (ev):

   -79.3800 -79.3800 -79.3800 -79.3800 -46.2296 -46.2296 -46.2292 -46.2292
   -32.8059 -32.8059 -32.8001 -32.8001 -32.6327 -32.6327 -32.6289 -32.6289
    -5.7465  -5.7465  -5.7322  -5.7322  -5.4496  -5.4496  -5.4111  -5.4111
     5.5043   5.5043   5.5245   5.5245   6.1442   6.1442   6.2149   6.2149
     6.9500   6.9500   7.0300   7.0300   8.4393   8.4393   8.4822   8.4822
     9.4491   9.4491   9.4993   9.4993  10.3789  10.3789  10.4642  10.4642
    11.9683  11.9683  11.9923  11.9923  12.6103  12.6103  12.8676  12.8676
    13.2554  13.2554  13.5175  13.5175  16.0896  16.0896  16.2341  16.2341
    17.0551  17.0551  17.1994  17.1994  22.9532  22.9534

     occupation numbers 
     1.0000   1.0000   1.0000   1.0000   1.0000   1.0000   1.0000   1.0000
     1.0000   1.0000   1.0000   1.0000   1.0000   1.0000   1.0000   1.0000
     1.0000   1.0000   1.0000   1.0000   1.0000   1.0000   1.0000   1.0000
     1.0000   1.0000   1.0000   1.0000   1.0000   1.0000   1.0000   1.0000
     1.0000   1.0000   1.0000   1.0000   1.0000   1.0000   1.0000   1.0000
     1.0000   1.0000   1.0000   1.0000   1.0000   1.0000   1.0000   1.0000
     1.0000   1.0000   1.0000   1.0000   1.0000   1.0000   1.0000   1.0000
     1.0000   1.0000   1.0000   1.0000  -0.0000  -0.0000  -0.0000  -0.0000
    -0.0000  -0.0000  -0.0000  -0.0000  -0.0000  -0.0000

          k = 0.4545 0.4545-0.7124 (  5374 PWs)   bands (ev):

   -79.3797 -79.3797 -79.3797 -79.3797 -46.2312 -46.2312 -46.2309 -46.2309
   -32.8155 -32.8155 -32.8093 -32.8093 -32.6336 -32.6336 -32.6295 -32.6295
    -5.6633  -5.6633  -5.6153  -5.6153  -5.5084  -5.5084  -5.4317  -5.4317
     5.7082   5.7082   5.7727   5.7727   6.1077   6.1077   6.3090   6.3090
     6.6238   6.6238   6.8293   6.8293   8.2369   8.2369   8.2883   8.2883
     9.6323   9.6323   9.6626   9.6626  10.6198  10.6198  10.6869  10.6869
    11.9188  11.9188  11.9417  11.9417  12.4337  12.4337  12.6762  12.6762
    13.3903  13.3903  13.6271  13.6271  15.9083  15.9083  16.0763  16.0763
    17.0287  17.0287  17.2043  17.2043  23.0557  23.0567

     occupation numbers 
     1.0000   1.0000   1.0000   1.0000   1.0000   1.0000   1.0000   1.0000
     1.0000   1.0000   1.0000   1.0000   1.0000   1.0000   1.0000   1.0000
     1.0000   1.0000   1.0000   1.0000   1.0000   1.0000   1.0000   1.0000
     1.0000   1.0000   1.0000   1.0000   1.0000   1.0000   1.0000   1.0000
     1.0000   1.0000   1.0000   1.0000   1.0000   1.0000   1.0000   1.0000
     1.0000   1.0000   1.0000   1.0000   1.0000   1.0000   1.0000   1.0000
     1.0000   1.0000   1.0000   1.0000   1.0000   1.0000   1.0000   1.0000
     1.0000   1.0000   1.0000   1.0000  -0.0000  -0.0000  -0.0000  -0.0000
    -0.0000  -0.0000  -0.0000  -0.0000  -0.0000  -0.0000

     the Fermi energy is    13.8726 ev

!    total energy              =    -553.08012681 Ry
     estimated scf accuracy    <          2.8E-11 Ry
     smearing contrib. (-TS)   =      -0.00003334 Ry
     internal energy E=F+TS    =    -553.08009347 Ry

     The total energy is F=E-TS. E is the sum of the following terms:
     one-electron contribution =    -190.91134783 Ry
     hartree contribution      =     122.73172711 Ry
     xc contribution           =     -69.91446222 Ry
     ewald contribution        =    -414.98601052 Ry

     convergence has been achieved in  10 iterations

     Forces acting on atoms (cartesian axes, Ry/au):

     atom    1 type  2   force =     0.00000000    0.00000000    0.00000000
     atom    2 type  2   force =     0.00000000    0.00000000    0.00000000
     atom    3 type  1   force =     0.00076704   -0.00076704   -0.00000000
     atom    4 type  1   force =    -0.00076704   -0.00076704    0.00000000
     atom    5 type  1   force =     0.00076704    0.00076704    0.00000000
     atom    6 type  1   force =    -0.00076704    0.00076704   -0.00000000
     The non-local contrib.  to forces
     atom    1 type  2   force =     0.00000000    0.00000000   -0.00000000
     atom    2 type  2   force =     0.00000000    0.00000000    0.00000000
     atom    3 type  1   force =    -0.05376142    0.05376142   -0.00000000
     atom    4 type  1   force =     0.05376142    0.05376142    0.00000000
     atom    5 type  1   force =    -0.05376142   -0.05376142    0.00000000
     atom    6 type  1   force =     0.05376142   -0.05376142   -0.00000000
     The ionic contribution  to forces
     atom    1 type  2   force =    -0.00000000   -0.00000000    0.00000000
     atom    2 type  2   force =     0.00000000    0.00000000   -0.00000000
     atom    3 type  1   force =     1.42937233   -1.42937233    0.00000000
     atom    4 type  1   force =    -1.42937233   -1.42937233   -0.00000000
     atom    5 type  1   force =     1.42937233    1.42937233   -0.00000000
     atom    6 type  1   force =    -1.42937233    1.42937233    0.00000000
     The local contribution  to forces
     atom    1 type  2   force =     0.00000000    0.00000000   -0.00000000
     atom    2 type  2   force =     0.00000000    0.00000000    0.00000000
     atom    3 type  1   force =    -1.37484334    1.37484334    0.00000000
     atom    4 type  1   force =     1.37484334    1.37484334    0.00000000
     atom    5 type  1   force =    -1.37484334   -1.37484334   -0.00000000
     atom    6 type  1   force =     1.37484334   -1.37484334    0.00000000
     The core correction contribution to forces
     atom    1 type  2   force =     0.00000000    0.00000000    0.00000000
     atom    2 type  2   force =     0.00000000    0.00000000    0.00000000
     atom    3 type  1   force =     0.00000000    0.00000000    0.00000000
     atom    4 type  1   force =     0.00000000    0.00000000    0.00000000
     atom    5 type  1   force =     0.00000000    0.00000000    0.00000000
     atom    6 type  1   force =     0.00000000    0.00000000    0.00000000
     The Hubbard contrib.    to forces
     atom    1 type  2   force =     0.00000000    0.00000000    0.00000000
     atom    2 type  2   force =     0.00000000    0.00000000    0.00000000
     atom    3 type  1   force =     0.00000000    0.00000000    0.00000000
     atom    4 type  1   force =     0.00000000    0.00000000    0.00000000
     atom    5 type  1   force =     0.00000000    0.00000000    0.00000000
     atom    6 type  1   force =     0.00000000    0.00000000    0.00000000
     The SCF correction term to forces
     atom    1 type  2   force =    -0.00000000   -0.00000000   -0.00000000
     atom    2 type  2   force =    -0.00000000   -0.00000000    0.00000000
     atom    3 type  1   force =    -0.00000053    0.00000053    0.00000000
     atom    4 type  1   force =     0.00000053    0.00000053   -0.00000000
     atom    5 type  1   force =    -0.00000053   -0.00000053   -0.00000000
     atom    6 type  1   force =     0.00000053   -0.00000053    0.00000000

     Total force =     0.002170     Total SCF correction =     0.000002


     Computing stress (Cartesian axis) and pressure

          total   stress  (Ry/bohr**3)                   (kbar)     P=      -20.53
  -0.00012151   0.00000000   0.00000000          -17.87        0.00        0.00
   0.00000000  -0.00012151   0.00000000            0.00      -17.87        0.00
   0.00000000   0.00000000  -0.00017572            0.00        0.00      -25.85

     kinetic stress (kbar)  48454.29      0.00      0.00
                                0.00  48454.29      0.00
                                0.00      0.00  47525.29

     local   stress (kbar) -12686.78     -0.00      0.00
                               -0.00 -12686.78      0.00
                                0.00      0.00 -44399.96

     nonloc. stress (kbar)  14528.14      0.00      0.00
                                0.00  14528.14      0.00
                                0.00      0.00  14741.04

     hartree stress (kbar)   9610.85      0.00     -0.00
                                0.00   9610.85     -0.00
                               -0.00     -0.00  21378.69

     exc-cor stress (kbar)  -7288.16      0.00      0.00
                                0.00  -7288.16      0.00
                                0.00      0.00  -7263.47

     corecor stress (kbar)      0.00      0.00      0.00
                                0.00      0.00      0.00
                                0.00      0.00      0.00

     ewald   stress (kbar) -52636.21     -0.00     -0.00
                               -0.00 -52636.21     -0.00
                               -0.00     -0.00 -32007.45

     hubbard stress (kbar)      0.00      0.00      0.00
                                0.00      0.00      0.00
                                0.00      0.00      0.00

     DFT-D   stress (kbar)      0.00      0.00      0.00
                                0.00      0.00      0.00
                                0.00      0.00      0.00

     XDM     stress (kbar)      0.00      0.00      0.00
                                0.00      0.00      0.00
                                0.00      0.00      0.00

     dft-nl  stress (kbar)      0.00      0.00      0.00
                                0.00      0.00      0.00
                                0.00      0.00      0.00

     TS-vdW  stress (kbar)      0.00      0.00      0.00
                                0.00      0.00      0.00
                                0.00      0.00      0.00


                                0.00      0.00      0.00
                                0.00      0.00      0.00


                                0.00      0.00      0.00


     Writing all to output data dir tmp/espresso.save/
 
     init_run     :     10.51s CPU      5.43s WALL (       1 calls)
     electrons    :    356.96s CPU    182.77s WALL (       1 calls)
     forces       :     17.39s CPU      8.92s WALL (       1 calls)
     stress       :     25.72s CPU     12.98s WALL (       1 calls)

     Called by init_run:
     wfcinit      :     10.44s CPU      5.37s WALL (       1 calls)
     wfcinit:atom :      0.03s CPU      0.02s WALL (     105 calls)
     wfcinit:wfcr :     10.16s CPU      5.21s WALL (     105 calls)
     potinit      :      0.02s CPU      0.01s WALL (       1 calls)
     hinit0       :      0.03s CPU      0.03s WALL (       1 calls)

     Called by electrons:
     c_bands      :    327.14s CPU    167.42s WALL (      10 calls)
     sum_band     :     29.64s CPU     15.23s WALL (      10 calls)
     v_of_rho     :      0.05s CPU      0.03s WALL (      11 calls)
     v_h          :      0.00s CPU      0.00s WALL (      11 calls)
     v_xc         :      0.05s CPU      0.02s WALL (      11 calls)
     mix_rho      :      0.05s CPU      0.02s WALL (      10 calls)

     Called by c_bands:
     init_us_2    :      0.99s CPU      0.52s WALL (    2415 calls)
     init_us_2:cp :      0.97s CPU      0.52s WALL (    2415 calls)
     cegterg      :    301.83s CPU    154.53s WALL (    1050 calls)

     Called by sum_band:
     sum_band:wei :      0.18s CPU      0.09s WALL (      10 calls)
     sum_band:loo :     29.43s CPU     15.12s WALL (      10 calls)
     sum_band:buf :      0.16s CPU      0.09s WALL (    1050 calls)
     sum_band:ini :      0.30s CPU      0.16s WALL (    1050 calls)

     Called by *egterg:
     cdiaghg      :     44.05s CPU     22.40s WALL (    3551 calls)
     cegterg:over :     18.65s CPU      9.48s WALL (    2501 calls)
     cegterg:upda :     14.72s CPU      7.49s WALL (    2501 calls)
     cegterg:last :     25.88s CPU     13.17s WALL (    2100 calls)
     cdiaghg:chol :      2.05s CPU      1.04s WALL (    3551 calls)
     cdiaghg:inve :      0.32s CPU      0.16s WALL (    3551 calls)
     cdiaghg:para :      4.57s CPU      2.32s WALL (    7102 calls)
     h_psi        :    200.90s CPU    103.24s WALL (    3656 calls)
     g_psi        :      0.29s CPU      0.15s WALL (    2501 calls)

     Called by h_psi:
     h_psi:calbec :     24.07s CPU     12.57s WALL (    3656 calls)
     vloc_psi     :    141.37s CPU     72.62s WALL (    3656 calls)
     add_vuspsi   :     35.02s CPU     17.83s WALL (    3656 calls)

     General routines
     calbec       :     30.15s CPU     15.74s WALL (    4181 calls)
     fft          :      0.06s CPU      0.03s WALL (     150 calls)
     ffts         :      0.01s CPU      0.01s WALL (      40 calls)
     fftw         :    159.98s CPU     82.21s WALL (  903284 calls)
 
     Parallel routines
 
     PWSCF        :   7m 2.54s CPU   3m40.08s WALL

 
   This run was terminated on:  11:12:31  10Apr2022            

=------------------------------------------------------------------------------=
   JOB DONE.
=------------------------------------------------------------------------------=
