
     Program PWSCF v.7.0 starts on 10Apr2022 at  9:45: 3 

     This program is part of the open-source Quantum ESPRESSO suite
     for quantum simulation of materials; please cite
         "P. Giannozzi et al., J. Phys.:Condens. Matter 21 395502 (2009);
         "P. Giannozzi et al., J. Phys.:Condens. Matter 29 465901 (2017);
         "P. Giannozzi et al., J. Chem. Phys. 152 154105 (2020);
          URL http://www.quantum-espresso.org", 
     in publications or presentations arising from this work. More details at
     http://www.quantum-espresso.org/quote

     Parallel version (MPI & OpenMP), running on      64 processor cores
     Number of MPI processes:                32
     Threads/MPI process:                     2

     MPI processes distributed on     1 nodes
     R & G space division:  proc/nbgrp/npool/nimage =      32
     231322 MiB available memory on the printing compute node when the environment starts
 
     Reading input from kpoints_992.pwi
Warning: card &CELL ignored
Warning: card / ignored

     Current dimensions of program PWSCF are:
     Max number of different atomic species (ntypx) = 10
     Max number of k-points (npk) =  40000
     Max angular momentum in pseudopotentials (lmaxx) =  4

     Subspace diagonalization in iterative solution of the eigenvalue problem:
     one sub-group per band group will be used
     scalapack distributed-memory algorithm (size of sub-group:  5*  5 procs)

 
     Parallelization info
     --------------------
     sticks:   dense  smooth     PW     G-vecs:    dense   smooth      PW
     Min          58      58     17                 1342     1342     210
     Max          59      59     19                 1345     1345     212
     Sum        1885    1885    553                42999    42999    6747
 
     Using Slab Decomposition
 

     Title: 
     IrO2 Unit Cell                                                             


     bravais-lattice index     =            6
     lattice parameter (alat)  =       8.5888  a.u.
     unit-cell volume          =     444.6868 (a.u.)^3
     number of atoms/cell      =            6
     number of atomic types    =            2
     number of electrons       =        58.00
     number of Kohn-Sham states=           70
     kinetic-energy cutoff     =      80.0000  Ry
     charge density cutoff     =     320.0000  Ry
     scf convergence threshold =      1.0E-09
     mixing beta               =       0.7000
     number of iterations used =            8  plain     mixing
     Exchange-correlation= PBE
                           (   1   4   3   4   0   0   0)
     Non magnetic calculation with spin-orbit


     celldm(1)=   8.588800  celldm(2)=   0.000000  celldm(3)=   0.701870
     celldm(4)=   0.000000  celldm(5)=   0.000000  celldm(6)=   0.000000

     crystal axes: (cart. coord. in units of alat)
               a(1) = (   1.000000   0.000000   0.000000 )  
               a(2) = (   0.000000   1.000000   0.000000 )  
               a(3) = (   0.000000   0.000000   0.701870 )  

     reciprocal axes: (cart. coord. in units 2 pi/alat)
               b(1) = (  1.000000  0.000000  0.000000 )  
               b(2) = (  0.000000  1.000000  0.000000 )  
               b(3) = (  0.000000  0.000000  1.424765 )  


     PseudoPot. # 1 for O  read from file:
     ../../XX_PSEUDO/O_ONCV_PBE_fr.upf
     MD5 check sum: 59c925217d3b58c6d762355590b68b09
     Pseudo is Norm-conserving, Zval =  6.0
     Generated using ONCVPSP code by D. R. Hamann
     Using radial grid of  936 points,  6 beta functions with: 
                l(1) =   0
                l(2) =   0
                l(3) =   1
                l(4) =   1
                l(5) =   1
                l(6) =   1

     PseudoPot. # 2 for Ir read from file:
     ../../XX_PSEUDO/Ir_ONCV_PBE_fr.upf
     MD5 check sum: 924e909c4146afa09f62ee3401806954
     Pseudo is Norm-conserving, Zval = 17.0
     Generated using ONCVPSP code by D. R. Hamann
     Using radial grid of 1310 points, 14 beta functions with: 
                l(1) =   0
                l(2) =   0
                l(3) =   1
                l(4) =   1
                l(5) =   1
                l(6) =   1
                l(7) =   2
                l(8) =   2
                l(9) =   2
               l(10) =   2
               l(11) =   3
               l(12) =   3
               l(13) =   3
               l(14) =   3

     atomic species   valence    mass     pseudopotential
        O              6.00    15.99900     O ( 1.00)
        Ir            17.00   192.21700     Ir( 1.00)

     16 Sym. Ops., with inversion, found ( 8 have fractional translation)


                                    s                        frac. trans.

      isym =  1     identity                                     

 cryst.   s( 1) = (     1          0          0      )
                  (     0          1          0      )
                  (     0          0          1      )

 cart.    s( 1) = (  1.0000000  0.0000000  0.0000000 )
                  (  0.0000000  1.0000000  0.0000000 )
                  (  0.0000000  0.0000000  1.0000000 )


      isym =  2     180 deg rotation - cart. axis [0,0,1]        

 cryst.   s( 2) = (    -1          0          0      )
                  (     0         -1          0      )
                  (     0          0          1      )

 cart.    s( 2) = ( -1.0000000  0.0000000  0.0000000 )
                  (  0.0000000 -1.0000000  0.0000000 )
                  (  0.0000000  0.0000000  1.0000000 )


      isym =  3     180 deg rotation - cart. axis [0,1,0]        

 cryst.   s( 3) = (    -1          0          0      )    f =(  0.5000000 )
                  (     0          1          0      )       ( -0.5000000 )
                  (     0          0         -1      )       (  0.5000000 )

 cart.    s( 3) = ( -1.0000000  0.0000000  0.0000000 )    f =(  0.5000000 )
                  (  0.0000000  1.0000000  0.0000000 )       ( -0.5000000 )
                  (  0.0000000  0.0000000 -1.0000000 )       (  0.3509351 )


      isym =  4     180 deg rotation - cart. axis [1,0,0]        

 cryst.   s( 4) = (     1          0          0      )    f =( -0.5000000 )
                  (     0         -1          0      )       (  0.5000000 )
                  (     0          0         -1      )       (  0.5000000 )

 cart.    s( 4) = (  1.0000000  0.0000000  0.0000000 )    f =( -0.5000000 )
                  (  0.0000000 -1.0000000  0.0000000 )       (  0.5000000 )
                  (  0.0000000  0.0000000 -1.0000000 )       (  0.3509351 )


      isym =  5     180 deg rotation - cart. axis [1,1,0]        

 cryst.   s( 5) = (     0          1          0      )
                  (     1          0          0      )
                  (     0          0         -1      )

 cart.    s( 5) = (  0.0000000  1.0000000  0.0000000 )
                  (  1.0000000  0.0000000  0.0000000 )
                  (  0.0000000  0.0000000 -1.0000000 )


      isym =  6     180 deg rotation - cart. axis [1,-1,0]       

 cryst.   s( 6) = (     0         -1          0      )
                  (    -1          0          0      )
                  (     0          0         -1      )

 cart.    s( 6) = (  0.0000000 -1.0000000  0.0000000 )
                  ( -1.0000000  0.0000000  0.0000000 )
                  (  0.0000000  0.0000000 -1.0000000 )


      isym =  7      90 deg rotation - cart. axis [0,0,-1]       

 cryst.   s( 7) = (     0         -1          0      )    f =( -0.5000000 )
                  (     1          0          0      )       (  0.5000000 )
                  (     0          0          1      )       ( -0.5000000 )

 cart.    s( 7) = (  0.0000000  1.0000000  0.0000000 )    f =( -0.5000000 )
                  ( -1.0000000  0.0000000  0.0000000 )       (  0.5000000 )
                  (  0.0000000  0.0000000  1.0000000 )       ( -0.3509351 )


      isym =  8      90 deg rotation - cart. axis [0,0,1]        

 cryst.   s( 8) = (     0          1          0      )    f =(  0.5000000 )
                  (    -1          0          0      )       ( -0.5000000 )
                  (     0          0          1      )       ( -0.5000000 )

 cart.    s( 8) = (  0.0000000 -1.0000000  0.0000000 )    f =(  0.5000000 )
                  (  1.0000000  0.0000000  0.0000000 )       ( -0.5000000 )
                  (  0.0000000  0.0000000  1.0000000 )       ( -0.3509351 )


      isym =  9     inversion                                    

 cryst.   s( 9) = (    -1          0          0      )
                  (     0         -1          0      )
                  (     0          0         -1      )

 cart.    s( 9) = ( -1.0000000  0.0000000  0.0000000 )
                  (  0.0000000 -1.0000000  0.0000000 )
                  (  0.0000000  0.0000000 -1.0000000 )


      isym = 10     inv. 180 deg rotation - cart. axis [0,0,1]   

 cryst.   s(10) = (     1          0          0      )
                  (     0          1          0      )
                  (     0          0         -1      )

 cart.    s(10) = (  1.0000000  0.0000000  0.0000000 )
                  (  0.0000000  1.0000000  0.0000000 )
                  (  0.0000000  0.0000000 -1.0000000 )


      isym = 11     inv. 180 deg rotation - cart. axis [0,1,0]   

 cryst.   s(11) = (     1          0          0      )    f =( -0.5000000 )
                  (     0         -1          0      )       (  0.5000000 )
                  (     0          0          1      )       ( -0.5000000 )

 cart.    s(11) = (  1.0000000  0.0000000  0.0000000 )    f =( -0.5000000 )
                  (  0.0000000 -1.0000000  0.0000000 )       (  0.5000000 )
                  (  0.0000000  0.0000000  1.0000000 )       ( -0.3509351 )


      isym = 12     inv. 180 deg rotation - cart. axis [1,0,0]   

 cryst.   s(12) = (    -1          0          0      )    f =(  0.5000000 )
                  (     0          1          0      )       ( -0.5000000 )
                  (     0          0          1      )       ( -0.5000000 )

 cart.    s(12) = ( -1.0000000  0.0000000  0.0000000 )    f =(  0.5000000 )
                  (  0.0000000  1.0000000  0.0000000 )       ( -0.5000000 )
                  (  0.0000000  0.0000000  1.0000000 )       ( -0.3509351 )


      isym = 13     inv. 180 deg rotation - cart. axis [1,1,0]   

 cryst.   s(13) = (     0         -1          0      )
                  (    -1          0          0      )
                  (     0          0          1      )

 cart.    s(13) = (  0.0000000 -1.0000000  0.0000000 )
                  ( -1.0000000  0.0000000  0.0000000 )
                  (  0.0000000  0.0000000  1.0000000 )


      isym = 14     inv. 180 deg rotation - cart. axis [1,-1,0]  

 cryst.   s(14) = (     0          1          0      )
                  (     1          0          0      )
                  (     0          0          1      )

 cart.    s(14) = (  0.0000000  1.0000000  0.0000000 )
                  (  1.0000000  0.0000000  0.0000000 )
                  (  0.0000000  0.0000000  1.0000000 )


      isym = 15     inv.  90 deg rotation - cart. axis [0,0,-1]  

 cryst.   s(15) = (     0          1          0      )    f =(  0.5000000 )
                  (    -1          0          0      )       ( -0.5000000 )
                  (     0          0         -1      )       (  0.5000000 )

 cart.    s(15) = (  0.0000000 -1.0000000  0.0000000 )    f =(  0.5000000 )
                  (  1.0000000  0.0000000  0.0000000 )       ( -0.5000000 )
                  (  0.0000000  0.0000000 -1.0000000 )       (  0.3509351 )


      isym = 16     inv.  90 deg rotation - cart. axis [0,0,1]   

 cryst.   s(16) = (     0         -1          0      )    f =( -0.5000000 )
                  (     1          0          0      )       (  0.5000000 )
                  (     0          0         -1      )       (  0.5000000 )

 cart.    s(16) = (  0.0000000  1.0000000  0.0000000 )    f =( -0.5000000 )
                  ( -1.0000000  0.0000000  0.0000000 )       (  0.5000000 )
                  (  0.0000000  0.0000000 -1.0000000 )       (  0.3509351 )


     double point group D_4h(4/mmm)
     there are 14 classes and  4 irreducible representations
     the character table:

       E     -E    2C4   -2C4   C2    2C2' 2C2'' i     -i    2S4   -2S4   s_h 
                               -C2   -2C2' -2C2'                         -s_h 
G_6+   2.00 -2.00  1.41 -1.41  0.00  0.00  0.00  2.00 -2.00  1.41 -1.41  0.00
G_7+   2.00 -2.00 -1.41  1.41  0.00  0.00  0.00  2.00 -2.00 -1.41  1.41  0.00
G_6-   2.00 -2.00  1.41 -1.41  0.00  0.00  0.00 -2.00  2.00 -1.41  1.41  0.00
G_7-   2.00 -2.00 -1.41  1.41  0.00  0.00  0.00 -2.00  2.00  1.41 -1.41  0.00

        2s_v  2s_d
       -2s_v -2s_d
G_6+   0.00  0.00
G_7+   0.00  0.00
G_6-   0.00  0.00
G_7-   0.00  0.00

     the symmetry operations in each class and the name of the first element:

     E             1
          identity                                               
     -E           -1
          identity E                                             
     2C4           7    8
           90 deg rotation - cart. axis [0,0,-1]                 
     -2C4         -7   -8
           90 deg rotation - cart. axis [0,0,-1] E               
      C2  -C2      2   -2
          180 deg rotation - cart. axis [0,0,1]                  
      2C2'-2C2'    3   -3    4   -4
          180 deg rotation - cart. axis [0,1,0]                  
     2C2''-2C2'    5   -5   -6    6
          180 deg rotation - cart. axis [1,1,0]                  
     i             9
          inversion                                              
     -i           -9
          inversion E                                            
     2S4          15   16
          inv.  90 deg rotation - cart. axis [0,0,-1]            
     -2S4        -15  -16
          inv.  90 deg rotation - cart. axis [0,0,-1] E          
      s_h -s_h    10  -10
          inv. 180 deg rotation - cart. axis [0,0,1]             
      2s_v-2s_v   11  -11   12  -12
          inv. 180 deg rotation - cart. axis [0,1,0]             
      2s_d-2s_d   13  -13  -14   14
          inv. 180 deg rotation - cart. axis [1,1,0]             

   Cartesian axes

     site n.     atom                  positions (alat units)
         1           Ir  tau(   1) = (   0.0000000   0.0000000   0.0000000  )
         2           Ir  tau(   2) = (   0.5000000   0.5000000   0.3509351  )
         3           O   tau(   3) = (   0.1916000   0.8084000   0.3509351  )
         4           O   tau(   4) = (   0.3084000   0.3084000   0.0000000  )
         5           O   tau(   5) = (   0.6916000   0.6916000   0.0000000  )
         6           O   tau(   6) = (   0.8084000   0.1916000   0.3509351  )

   Crystallographic axes

     site n.     atom                  positions (cryst. coord.)
         1           Ir  tau(   1) = (  0.0000000  0.0000000  0.0000000  )
         2           Ir  tau(   2) = (  0.5000000  0.5000000  0.5000000  )
         3           O   tau(   3) = (  0.1916000  0.8084000  0.5000000  )
         4           O   tau(   4) = (  0.3084000  0.3084000  0.0000000  )
         5           O   tau(   5) = (  0.6916000  0.6916000  0.0000000  )
         6           O   tau(   6) = (  0.8084000  0.1916000  0.5000000  )

     number of k points=    30  Methfessel-Paxton smearing, width (Ry)=  0.0050
                       cart. coord. in units 2pi/alat
        k(    1) = (   0.0000000   0.0000000   0.0000000), wk =   0.0061728
        k(    2) = (   0.0000000   0.0000000  -0.7123824), wk =   0.0061728
        k(    3) = (   0.0000000   0.1111111   0.0000000), wk =   0.0246914
        k(    4) = (   0.0000000   0.1111111  -0.7123824), wk =   0.0246914
        k(    5) = (   0.0000000   0.2222222   0.0000000), wk =   0.0246914
        k(    6) = (   0.0000000   0.2222222  -0.7123824), wk =   0.0246914
        k(    7) = (   0.0000000   0.3333333   0.0000000), wk =   0.0246914
        k(    8) = (   0.0000000   0.3333333  -0.7123824), wk =   0.0246914
        k(    9) = (   0.0000000   0.4444444   0.0000000), wk =   0.0246914
        k(   10) = (   0.0000000   0.4444444  -0.7123824), wk =   0.0246914
        k(   11) = (   0.1111111   0.1111111   0.0000000), wk =   0.0246914
        k(   12) = (   0.1111111   0.1111111  -0.7123824), wk =   0.0246914
        k(   13) = (   0.1111111   0.2222222   0.0000000), wk =   0.0493827
        k(   14) = (   0.1111111   0.2222222  -0.7123824), wk =   0.0493827
        k(   15) = (   0.1111111   0.3333333   0.0000000), wk =   0.0493827
        k(   16) = (   0.1111111   0.3333333  -0.7123824), wk =   0.0493827
        k(   17) = (   0.1111111   0.4444444   0.0000000), wk =   0.0493827
        k(   18) = (   0.1111111   0.4444444  -0.7123824), wk =   0.0493827
        k(   19) = (   0.2222222   0.2222222   0.0000000), wk =   0.0246914
        k(   20) = (   0.2222222   0.2222222  -0.7123824), wk =   0.0246914
        k(   21) = (   0.2222222   0.3333333   0.0000000), wk =   0.0493827
        k(   22) = (   0.2222222   0.3333333  -0.7123824), wk =   0.0493827
        k(   23) = (   0.2222222   0.4444444   0.0000000), wk =   0.0493827
        k(   24) = (   0.2222222   0.4444444  -0.7123824), wk =   0.0493827
        k(   25) = (   0.3333333   0.3333333   0.0000000), wk =   0.0246914
        k(   26) = (   0.3333333   0.3333333  -0.7123824), wk =   0.0246914
        k(   27) = (   0.3333333   0.4444444   0.0000000), wk =   0.0493827
        k(   28) = (   0.3333333   0.4444444  -0.7123824), wk =   0.0493827
        k(   29) = (   0.4444444   0.4444444   0.0000000), wk =   0.0246914
        k(   30) = (   0.4444444   0.4444444  -0.7123824), wk =   0.0246914

                       cryst. coord.
        k(    1) = (   0.0000000   0.0000000   0.0000000), wk =   0.0061728
        k(    2) = (   0.0000000   0.0000000  -0.5000000), wk =   0.0061728
        k(    3) = (   0.0000000   0.1111111   0.0000000), wk =   0.0246914
        k(    4) = (   0.0000000   0.1111111  -0.5000000), wk =   0.0246914
        k(    5) = (   0.0000000   0.2222222   0.0000000), wk =   0.0246914
        k(    6) = (   0.0000000   0.2222222  -0.5000000), wk =   0.0246914
        k(    7) = (   0.0000000   0.3333333   0.0000000), wk =   0.0246914
        k(    8) = (   0.0000000   0.3333333  -0.5000000), wk =   0.0246914
        k(    9) = (   0.0000000   0.4444444   0.0000000), wk =   0.0246914
        k(   10) = (   0.0000000   0.4444444  -0.5000000), wk =   0.0246914
        k(   11) = (   0.1111111   0.1111111   0.0000000), wk =   0.0246914
        k(   12) = (   0.1111111   0.1111111  -0.5000000), wk =   0.0246914
        k(   13) = (   0.1111111   0.2222222   0.0000000), wk =   0.0493827
        k(   14) = (   0.1111111   0.2222222  -0.5000000), wk =   0.0493827
        k(   15) = (   0.1111111   0.3333333   0.0000000), wk =   0.0493827
        k(   16) = (   0.1111111   0.3333333  -0.5000000), wk =   0.0493827
        k(   17) = (   0.1111111   0.4444444   0.0000000), wk =   0.0493827
        k(   18) = (   0.1111111   0.4444444  -0.5000000), wk =   0.0493827
        k(   19) = (   0.2222222   0.2222222   0.0000000), wk =   0.0246914
        k(   20) = (   0.2222222   0.2222222  -0.5000000), wk =   0.0246914
        k(   21) = (   0.2222222   0.3333333   0.0000000), wk =   0.0493827
        k(   22) = (   0.2222222   0.3333333  -0.5000000), wk =   0.0493827
        k(   23) = (   0.2222222   0.4444444   0.0000000), wk =   0.0493827
        k(   24) = (   0.2222222   0.4444444  -0.5000000), wk =   0.0493827
        k(   25) = (   0.3333333   0.3333333   0.0000000), wk =   0.0246914
        k(   26) = (   0.3333333   0.3333333  -0.5000000), wk =   0.0246914
        k(   27) = (   0.3333333   0.4444444   0.0000000), wk =   0.0493827
        k(   28) = (   0.3333333   0.4444444  -0.5000000), wk =   0.0493827
        k(   29) = (   0.4444444   0.4444444   0.0000000), wk =   0.0246914
        k(   30) = (   0.4444444   0.4444444  -0.5000000), wk =   0.0246914

     Dense  grid:    42999 G-vectors     FFT dimensions: (  50,  50,  36)

     Dynamical RAM for                 wfc:       0.36 MB

     Dynamical RAM for     wfc (w. buffer):      11.06 MB

     Dynamical RAM for           str. fact:       0.04 MB

     Dynamical RAM for           local pot:       0.00 MB

     Dynamical RAM for          nlocal pot:       0.46 MB

     Dynamical RAM for                qrad:      20.10 MB

     Dynamical RAM for          rho,v,vnew:       0.70 MB

     Dynamical RAM for               rhoin:       0.23 MB

     Dynamical RAM for            rho*nmix:       1.31 MB

     Dynamical RAM for           G-vectors:       0.09 MB

     Dynamical RAM for          h,s,v(r/c):       0.04 MB

     Dynamical RAM for          <psi|beta>:       0.38 MB

     Dynamical RAM for                 psi:       0.71 MB

     Dynamical RAM for                hpsi:       0.71 MB

     Dynamical RAM for      wfcinit/wfcrot:       0.67 MB

     Estimated static dynamical RAM per process >      33.05 MB

     Estimated max dynamical RAM per process >      36.21 MB

     Estimated total dynamical RAM >       1.13 GB

     Initial potential from superposition of free atoms

     starting charge      57.9997, renormalised to      58.0000
     Starting wfcs are   72 randomized atomic wfcs

     total cpu time spent up to now is        1.7 secs

     Self-consistent Calculation

     iteration #  1     ecut=    80.00 Ry     beta= 0.70
     Davidson diagonalization with overlap

---- Real-time Memory Report at c_bands before calling an iterative solver
            84 MiB given to the printing process from OS
             0 MiB allocation reported by mallinfo(arena+hblkhd)
        229645 MiB available memory on the node where the printing process lives
------------------
     ethr =  1.00E-02,  avg # of iterations =  2.9

     total cpu time spent up to now is        6.9 secs

     total energy              =    -552.46870385 Ry
     estimated scf accuracy    <       1.18399589 Ry

     iteration #  2     ecut=    80.00 Ry     beta= 0.70
     Davidson diagonalization with overlap

---- Real-time Memory Report at c_bands before calling an iterative solver
            92 MiB given to the printing process from OS
             0 MiB allocation reported by mallinfo(arena+hblkhd)
        229481 MiB available memory on the node where the printing process lives
------------------
     ethr =  2.04E-03,  avg # of iterations =  2.1

     total cpu time spent up to now is       12.6 secs

     total energy              =    -552.28653730 Ry
     estimated scf accuracy    <       4.29520428 Ry

     iteration #  3     ecut=    80.00 Ry     beta= 0.70
     Davidson diagonalization with overlap

---- Real-time Memory Report at c_bands before calling an iterative solver
            93 MiB given to the printing process from OS
             0 MiB allocation reported by mallinfo(arena+hblkhd)
        229429 MiB available memory on the node where the printing process lives
------------------
     ethr =  2.04E-03,  avg # of iterations =  2.0

     total cpu time spent up to now is       17.9 secs

     total energy              =    -553.09889847 Ry
     estimated scf accuracy    <       0.03990866 Ry

     iteration #  4     ecut=    80.00 Ry     beta= 0.70
     Davidson diagonalization with overlap

---- Real-time Memory Report at c_bands before calling an iterative solver
            95 MiB given to the printing process from OS
             0 MiB allocation reported by mallinfo(arena+hblkhd)
        229423 MiB available memory on the node where the printing process lives
------------------
     ethr =  6.88E-05,  avg # of iterations =  3.3

     total cpu time spent up to now is       23.2 secs

     total energy              =    -553.10174148 Ry
     estimated scf accuracy    <       0.00707050 Ry

     iteration #  5     ecut=    80.00 Ry     beta= 0.70
     Davidson diagonalization with overlap

---- Real-time Memory Report at c_bands before calling an iterative solver
            95 MiB given to the printing process from OS
             0 MiB allocation reported by mallinfo(arena+hblkhd)
        229421 MiB available memory on the node where the printing process lives
------------------
     ethr =  1.22E-05,  avg # of iterations =  2.5

     total cpu time spent up to now is       28.1 secs

     total energy              =    -553.10303473 Ry
     estimated scf accuracy    <       0.00026788 Ry

     iteration #  6     ecut=    80.00 Ry     beta= 0.70
     Davidson diagonalization with overlap

---- Real-time Memory Report at c_bands before calling an iterative solver
            96 MiB given to the printing process from OS
             0 MiB allocation reported by mallinfo(arena+hblkhd)
        229417 MiB available memory on the node where the printing process lives
------------------
     ethr =  4.62E-07,  avg # of iterations =  6.2

     total cpu time spent up to now is       33.9 secs

     total energy              =    -553.10307447 Ry
     estimated scf accuracy    <       0.00000911 Ry

     iteration #  7     ecut=    80.00 Ry     beta= 0.70
     Davidson diagonalization with overlap

---- Real-time Memory Report at c_bands before calling an iterative solver
            97 MiB given to the printing process from OS
             0 MiB allocation reported by mallinfo(arena+hblkhd)
        229415 MiB available memory on the node where the printing process lives
------------------
     ethr =  1.57E-08,  avg # of iterations =  2.0

     total cpu time spent up to now is       39.2 secs

     total energy              =    -553.10307679 Ry
     estimated scf accuracy    <       0.00000016 Ry

     iteration #  8     ecut=    80.00 Ry     beta= 0.70
     Davidson diagonalization with overlap

---- Real-time Memory Report at c_bands before calling an iterative solver
           100 MiB given to the printing process from OS
             0 MiB allocation reported by mallinfo(arena+hblkhd)
        229363 MiB available memory on the node where the printing process lives
------------------
     ethr =  2.83E-10,  avg # of iterations =  2.3

     total cpu time spent up to now is       44.6 secs

     total energy              =    -553.10307683 Ry
     estimated scf accuracy    <          5.4E-09 Ry

     iteration #  9     ecut=    80.00 Ry     beta= 0.70
     Davidson diagonalization with overlap

---- Real-time Memory Report at c_bands before calling an iterative solver
           100 MiB given to the printing process from OS
             0 MiB allocation reported by mallinfo(arena+hblkhd)
        229354 MiB available memory on the node where the printing process lives
------------------
     ethr =  9.39E-12,  avg # of iterations =  2.5

     total cpu time spent up to now is       50.2 secs

     End of self-consistent calculation

          k = 0.0000 0.0000 0.0000 (  5409 PWs)   bands (ev):

   -79.4306 -79.4306 -79.4293 -79.4293 -46.2700 -46.2700 -46.2593 -46.2593
   -32.8103 -32.8103 -32.8068 -32.8068 -32.6575 -32.6575 -32.6359 -32.6359
    -7.1048  -7.1048  -5.9544  -5.9544  -5.0337  -5.0337  -4.8329  -4.8329
     4.2291   4.2291   4.4669   4.4669   6.0217   6.0217   6.1342   6.1342
     6.2424   6.2424   8.7808   8.7808   8.8954   8.8954   9.1542   9.1542
    10.3293  10.3293  10.9428  10.9428  10.9513  10.9513  10.9842  10.9842
    11.1946  11.1946  11.3782  11.3782  11.6061  11.6061  11.6348  11.6348
    12.0373  12.0373  14.6163  14.6163  15.0501  15.0501  17.6660  17.6660
    17.8813  17.8813  18.0234  18.0234  19.3899  19.3899

     occupation numbers 
     1.0000   1.0000   1.0000   1.0000   1.0000   1.0000   1.0000   1.0000
     1.0000   1.0000   1.0000   1.0000   1.0000   1.0000   1.0000   1.0000
     1.0000   1.0000   1.0000   1.0000   1.0000   1.0000   1.0000   1.0000
     1.0000   1.0000   1.0000   1.0000   1.0000   1.0000   1.0000   1.0000
     1.0000   1.0000   1.0000   1.0000   1.0000   1.0000   1.0000   1.0000
     1.0000   1.0000   1.0000   1.0000   1.0000   1.0000   1.0000   1.0000
     1.0000   1.0000   1.0000   1.0000   1.0000   1.0000   1.0000   1.0000
     1.0000   1.0000  -0.0000  -0.0000  -0.0000  -0.0000  -0.0000  -0.0000
    -0.0000  -0.0000  -0.0000  -0.0000  -0.0000  -0.0000

          k = 0.0000 0.0000-0.7124 (  5314 PWs)   bands (ev):

   -79.4277 -79.4277 -79.4277 -79.4277 -46.2759 -46.2759 -46.2759 -46.2759
   -32.8673 -32.8673 -32.8673 -32.8673 -32.6585 -32.6585 -32.6585 -32.6585
    -5.7657  -5.7657  -5.7657  -5.7657  -5.4324  -5.4324  -5.4324  -5.4324
     5.7025   5.7025   5.7025   5.7025   6.6844   6.6844   6.6844   6.6844
     7.0751   7.0751   7.0751   7.0751   8.1652   8.1652   8.1652   8.1652
     8.5315   8.5315   8.5315   8.5315   9.9382   9.9382   9.9382   9.9382
    11.8627  11.8627  11.8627  11.8627  13.0590  13.0590  13.0590  13.0590
    14.0790  14.0790  14.0790  14.0790  16.0500  16.0500  16.0500  16.0500
    16.5814  16.5814  16.5814  16.5814  22.9135  22.9135

     occupation numbers 
     1.0000   1.0000   1.0000   1.0000   1.0000   1.0000   1.0000   1.0000
     1.0000   1.0000   1.0000   1.0000   1.0000   1.0000   1.0000   1.0000
     1.0000   1.0000   1.0000   1.0000   1.0000   1.0000   1.0000   1.0000
     1.0000   1.0000   1.0000   1.0000   1.0000   1.0000   1.0000   1.0000
     1.0000   1.0000   1.0000   1.0000   1.0000   1.0000   1.0000   1.0000
     1.0000   1.0000   1.0000   1.0000   1.0000   1.0000   1.0000   1.0000
     1.0000   1.0000   1.0000   1.0000   1.0000   1.0000   1.0000   1.0000
    -0.0322  -0.0322  -0.0322  -0.0322  -0.0000  -0.0000  -0.0000  -0.0000
    -0.0000  -0.0000  -0.0000  -0.0000  -0.0000  -0.0000

          k = 0.0000 0.1111 0.0000 (  5373 PWs)   bands (ev):

   -79.4306 -79.4306 -79.4294 -79.4294 -46.2697 -46.2697 -46.2596 -46.2596
   -32.8099 -32.8099 -32.8066 -32.8066 -32.6572 -32.6572 -32.6369 -32.6369
    -7.0582  -7.0582  -5.9482  -5.9482  -5.0739  -5.0739  -4.8807  -4.8807
     4.3487   4.3487   4.5571   4.5571   6.0403   6.0403   6.1451   6.1451
     6.3189   6.3189   8.7140   8.7140   8.7197   8.7197   8.9823   8.9823
    10.0590  10.0590  10.5272  10.5272  10.7417  10.7417  11.2702  11.2702
    11.3777  11.3777  11.5218  11.5218  11.6570  11.6570  11.7772  11.7772
    12.2049  12.2049  14.8104  14.8104  14.9644  14.9644  17.6199  17.6199
    17.9566  17.9566  18.0965  18.0965  19.2787  19.2787

     occupation numbers 
     1.0000   1.0000   1.0000   1.0000   1.0000   1.0000   1.0000   1.0000
     1.0000   1.0000   1.0000   1.0000   1.0000   1.0000   1.0000   1.0000
     1.0000   1.0000   1.0000   1.0000   1.0000   1.0000   1.0000   1.0000
     1.0000   1.0000   1.0000   1.0000   1.0000   1.0000   1.0000   1.0000
     1.0000   1.0000   1.0000   1.0000   1.0000   1.0000   1.0000   1.0000
     1.0000   1.0000   1.0000   1.0000   1.0000   1.0000   1.0000   1.0000
     1.0000   1.0000   1.0000   1.0000   1.0000   1.0000   1.0000   1.0000
     1.0000   1.0000  -0.0000  -0.0000  -0.0000  -0.0000  -0.0000  -0.0000
    -0.0000  -0.0000  -0.0000  -0.0000  -0.0000  -0.0000

          k = 0.0000 0.1111-0.7124 (  5388 PWs)   bands (ev):

   -79.4277 -79.4277 -79.4277 -79.4277 -46.2763 -46.2763 -46.2756 -46.2756
   -32.8725 -32.8725 -32.8622 -32.8622 -32.6618 -32.6618 -32.6552 -32.6552
    -5.7857  -5.7857  -5.7707  -5.7707  -5.4532  -5.4532  -5.3824  -5.3824
     5.7003   5.7003   5.7330   5.7330   6.3878   6.3878   6.4607   6.4607
     7.3159   7.3159   7.3338   7.3338   8.0979   8.0979   8.2288   8.2288
     8.6524   8.6524   8.6932   8.6932   9.8415   9.8415   9.8739   9.8739
    11.8500  11.8500  11.8804  11.8804  12.8286  12.8286  12.9953  12.9953
    14.0029  14.0029  14.2308  14.2308  15.7085  15.7085  15.8190  15.8190
    16.8454  16.8454  17.0338  17.0338  22.9174  22.9286

     occupation numbers 
     1.0000   1.0000   1.0000   1.0000   1.0000   1.0000   1.0000   1.0000
     1.0000   1.0000   1.0000   1.0000   1.0000   1.0000   1.0000   1.0000
     1.0000   1.0000   1.0000   1.0000   1.0000   1.0000   1.0000   1.0000
     1.0000   1.0000   1.0000   1.0000   1.0000   1.0000   1.0000   1.0000
     1.0000   1.0000   1.0000   1.0000   1.0000   1.0000   1.0000   1.0000
     1.0000   1.0000   1.0000   1.0000   1.0000   1.0000   1.0000   1.0000
     1.0000   1.0000   1.0000   1.0000   1.0000   1.0000   1.0000   1.0000
     0.2810   0.2810  -0.0000  -0.0000  -0.0000  -0.0000  -0.0000  -0.0000
    -0.0000  -0.0000  -0.0000  -0.0000  -0.0000  -0.0000

          k = 0.0000 0.2222 0.0000 (  5367 PWs)   bands (ev):

   -79.4305 -79.4305 -79.4295 -79.4295 -46.2688 -46.2688 -46.2606 -46.2606
   -32.8087 -32.8087 -32.8061 -32.8061 -32.6563 -32.6563 -32.6398 -32.6398
    -6.9227  -6.9227  -5.9449  -5.9449  -5.1868  -5.1868  -4.9944  -4.9944
     4.6782   4.6782   4.8150   4.8150   6.0867   6.0867   6.1734   6.1734
     6.5504   6.5504   8.2601   8.2601   8.4365   8.4365   8.6990   8.6990
     9.6094   9.6094   9.8066   9.8066  10.5878  10.5878  11.3777  11.3777
    11.6024  11.6024  11.7087  11.7087  11.9600  11.9600  12.0881  12.0881
    12.5327  12.5327  14.6806  14.6806  15.3762  15.3762  17.4878  17.4878
    17.7825  17.7825  18.6768  18.6768  18.9591  18.9591

     occupation numbers 
     1.0000   1.0000   1.0000   1.0000   1.0000   1.0000   1.0000   1.0000
     1.0000   1.0000   1.0000   1.0000   1.0000   1.0000   1.0000   1.0000
     1.0000   1.0000   1.0000   1.0000   1.0000   1.0000   1.0000   1.0000
     1.0000   1.0000   1.0000   1.0000   1.0000   1.0000   1.0000   1.0000
     1.0000   1.0000   1.0000   1.0000   1.0000   1.0000   1.0000   1.0000
     1.0000   1.0000   1.0000   1.0000   1.0000   1.0000   1.0000   1.0000
     1.0000   1.0000   1.0000   1.0000   1.0000   1.0000   1.0000   1.0000
     1.0000   1.0000  -0.0000  -0.0000  -0.0000  -0.0000  -0.0000  -0.0000
    -0.0000  -0.0000  -0.0000  -0.0000  -0.0000  -0.0000

          k = 0.0000 0.2222-0.7124 (  5368 PWs)   bands (ev):

   -79.4277 -79.4277 -79.4277 -79.4277 -46.2766 -46.2766 -46.2753 -46.2753
   -32.8771 -32.8771 -32.8578 -32.8578 -32.6646 -32.6646 -32.6523 -32.6523
    -5.8146  -5.8146  -5.7996  -5.7996  -5.4432  -5.4432  -5.3233  -5.3233
     5.6675   5.6675   5.7515   5.7515   6.0969   6.0969   6.2149   6.2149
     7.5463   7.5463   7.6495   7.6495   8.0661   8.0661   8.2867   8.2867
     9.0288   9.0288   9.0915   9.0915   9.6438   9.6438   9.6806   9.6806
    11.8512  11.8512  11.8544  11.8544  12.3988  12.3988  12.6740  12.6740
    14.0321  14.0321  14.3606  14.3606  15.3654  15.3654  15.4418  15.4418
    17.3840  17.3840  17.5865  17.5865  22.9494  22.9531

     occupation numbers 
     1.0000   1.0000   1.0000   1.0000   1.0000   1.0000   1.0000   1.0000
     1.0000   1.0000   1.0000   1.0000   1.0000   1.0000   1.0000   1.0000
     1.0000   1.0000   1.0000   1.0000   1.0000   1.0000   1.0000   1.0000
     1.0000   1.0000   1.0000   1.0000   1.0000   1.0000   1.0000   1.0000
     1.0000   1.0000   1.0000   1.0000   1.0000   1.0000   1.0000   1.0000
     1.0000   1.0000   1.0000   1.0000   1.0000   1.0000   1.0000   1.0000
     1.0000   1.0000   1.0000   1.0000   1.0000   1.0000   1.0000   1.0000
     0.0407   0.0407  -0.0000  -0.0000  -0.0000  -0.0000  -0.0000  -0.0000
    -0.0000  -0.0000  -0.0000  -0.0000  -0.0000  -0.0000

          k = 0.0000 0.3333 0.0000 (  5372 PWs)   bands (ev):

   -79.4303 -79.4303 -79.4296 -79.4296 -46.2673 -46.2673 -46.2620 -46.2620
   -32.8073 -32.8073 -32.8057 -32.8057 -32.6546 -32.6546 -32.6437 -32.6437
    -6.7113  -6.7113  -6.0022  -6.0022  -5.3069  -5.3069  -5.1250  -5.1250
     5.1234   5.1234   5.1975   5.1975   6.1474   6.1474   6.2062   6.2062
     6.9262   6.9262   7.7280   7.7280   7.8677   7.8677   8.6148   8.6148
     8.9929   8.9929   9.2056   9.2056  10.5786  10.5786  11.1494  11.1494
    11.8892  11.8892  11.9950  11.9950  12.2084  12.2084  12.3740  12.3740
    12.9292  12.9292  14.2990  14.2990  16.1186  16.1186  17.3394  17.3394
    17.5675  17.5675  18.4293  18.4293  19.4888  19.4888

     occupation numbers 
     1.0000   1.0000   1.0000   1.0000   1.0000   1.0000   1.0000   1.0000
     1.0000   1.0000   1.0000   1.0000   1.0000   1.0000   1.0000   1.0000
     1.0000   1.0000   1.0000   1.0000   1.0000   1.0000   1.0000   1.0000
     1.0000   1.0000   1.0000   1.0000   1.0000   1.0000   1.0000   1.0000
     1.0000   1.0000   1.0000   1.0000   1.0000   1.0000   1.0000   1.0000
     1.0000   1.0000   1.0000   1.0000   1.0000   1.0000   1.0000   1.0000
     1.0000   1.0000   1.0000   1.0000   1.0000   1.0000   1.0000   1.0000
     1.0000   1.0000  -0.0000  -0.0000  -0.0000  -0.0000  -0.0000  -0.0000
    -0.0000  -0.0000  -0.0000  -0.0000  -0.0000  -0.0000

          k = 0.0000 0.3333-0.7124 (  5356 PWs)   bands (ev):

   -79.4277 -79.4277 -79.4277 -79.4277 -46.2768 -46.2768 -46.2751 -46.2751
   -32.8806 -32.8806 -32.8546 -32.8546 -32.6667 -32.6667 -32.6501 -32.6501
    -5.8395  -5.8395  -5.8326  -5.8326  -5.4217  -5.4217  -5.2738  -5.2738
     5.5488   5.5488   5.6160   5.6160   6.0847   6.0847   6.1536   6.1536
     7.5734   7.5734   7.8917   7.8917   8.1932   8.1932   8.3636   8.3636
     9.2075   9.2075   9.2184   9.2184   9.7791   9.7791   9.8149   9.8149
    11.6555  11.6555  11.8008  11.8008  11.8930  11.8930  12.3434  12.3434
    14.0858  14.0858  14.4371  14.4371  15.1236  15.1236  15.1764  15.1764
    17.8643  17.8643  18.0528  18.0528  23.0225  23.0236

     occupation numbers 
     1.0000   1.0000   1.0000   1.0000   1.0000   1.0000   1.0000   1.0000
     1.0000   1.0000   1.0000   1.0000   1.0000   1.0000   1.0000   1.0000
     1.0000   1.0000   1.0000   1.0000   1.0000   1.0000   1.0000   1.0000
     1.0000   1.0000   1.0000   1.0000   1.0000   1.0000   1.0000   1.0000
     1.0000   1.0000   1.0000   1.0000   1.0000   1.0000   1.0000   1.0000
     1.0000   1.0000   1.0000   1.0000   1.0000   1.0000   1.0000   1.0000
     1.0000   1.0000   1.0000   1.0000   1.0000   1.0000   1.0000   1.0000
    -0.0282  -0.0282  -0.0000  -0.0000  -0.0000  -0.0000  -0.0000  -0.0000
    -0.0000  -0.0000  -0.0000  -0.0000  -0.0000  -0.0000

          k = 0.0000 0.4444 0.0000 (  5372 PWs)   bands (ev):

   -79.4301 -79.4301 -79.4299 -79.4299 -46.2656 -46.2656 -46.2638 -46.2638
   -32.8062 -32.8062 -32.8056 -32.8056 -32.6518 -32.6518 -32.6480 -32.6480
    -6.4498  -6.4498  -6.1860  -6.1860  -5.3251  -5.3251  -5.2460  -5.2460
     5.5083   5.5083   5.5479   5.5479   6.2098   6.2098   6.2289   6.2289
     7.2017   7.2017   7.3491   7.3491   7.5859   7.5859   8.2121   8.2121
     8.6784   8.6784   8.8748   8.8748  10.6966  10.6966  10.9027  10.9027
    12.0709  12.0709  12.1273  12.1273  12.4027  12.4027  12.4901  12.4901
    13.3834  13.3834  13.8524  13.8524  16.9016  16.9016  17.2528  17.2528
    17.4140  17.4140  17.7769  17.7769  20.3449  20.3449

     occupation numbers 
     1.0000   1.0000   1.0000   1.0000   1.0000   1.0000   1.0000   1.0000
     1.0000   1.0000   1.0000   1.0000   1.0000   1.0000   1.0000   1.0000
     1.0000   1.0000   1.0000   1.0000   1.0000   1.0000   1.0000   1.0000
     1.0000   1.0000   1.0000   1.0000   1.0000   1.0000   1.0000   1.0000
     1.0000   1.0000   1.0000   1.0000   1.0000   1.0000   1.0000   1.0000
     1.0000   1.0000   1.0000   1.0000   1.0000   1.0000   1.0000   1.0000
     1.0000   1.0000   1.0000   1.0000   1.0000   1.0000   1.0000   1.0000
     1.0000   1.0000   1.0096   1.0096  -0.0000  -0.0000  -0.0000  -0.0000
    -0.0000  -0.0000  -0.0000  -0.0000  -0.0000  -0.0000

          k = 0.0000 0.4444-0.7124 (  5352 PWs)   bands (ev):

   -79.4277 -79.4277 -79.4277 -79.4277 -46.2769 -46.2769 -46.2750 -46.2750
   -32.8824 -32.8824 -32.8529 -32.8529 -32.6678 -32.6678 -32.6490 -32.6490
    -5.8535  -5.8535  -5.8530  -5.8530  -5.4066  -5.4066  -5.2459  -5.2459
     5.4491   5.4491   5.4944   5.4944   6.1594   6.1594   6.1699   6.1699
     7.5123   7.5123   8.0235   8.0235   8.4078   8.4078   8.5345   8.5345
     8.9149   8.9149   8.9729   8.9729  10.3856  10.3856  10.4121  10.4121
    11.1917  11.1917  11.2077  11.2077  11.8700  11.8700  12.2156  12.2156
    14.1194  14.1194  14.4652  14.4652  14.9992  14.9992  15.0477  15.0477
    18.1504  18.1504  18.3230  18.3230  23.1099  23.1100

     occupation numbers 
     1.0000   1.0000   1.0000   1.0000   1.0000   1.0000   1.0000   1.0000
     1.0000   1.0000   1.0000   1.0000   1.0000   1.0000   1.0000   1.0000
     1.0000   1.0000   1.0000   1.0000   1.0000   1.0000   1.0000   1.0000
     1.0000   1.0000   1.0000   1.0000   1.0000   1.0000   1.0000   1.0000
     1.0000   1.0000   1.0000   1.0000   1.0000   1.0000   1.0000   1.0000
     1.0000   1.0000   1.0000   1.0000   1.0000   1.0000   1.0000   1.0000
     1.0000   1.0000   1.0000   1.0000   1.0000   1.0000   1.0000   1.0000
    -0.0085  -0.0085  -0.0000  -0.0000  -0.0000  -0.0000  -0.0000  -0.0000
    -0.0000  -0.0000  -0.0000  -0.0000  -0.0000  -0.0000

          k = 0.1111 0.1111 0.0000 (  5365 PWs)   bands (ev):

   -79.4306 -79.4306 -79.4294 -79.4294 -46.2694 -46.2694 -46.2599 -46.2599
   -32.8096 -32.8096 -32.8064 -32.8064 -32.6569 -32.6569 -32.6378 -32.6378
    -7.0153  -7.0153  -5.9442  -5.9442  -5.1259  -5.1259  -4.9034  -4.9034
     4.3312   4.3312   4.7669   4.7669   6.0454   6.0454   6.1621   6.1621
     6.3949   6.3949   8.3497   8.3497   8.6966   8.6966   9.0159   9.0159
     9.9619   9.9619  10.4332  10.4332  10.5681  10.5681  11.1191  11.1191
    11.4790  11.4790  11.5430  11.5430  11.8160  11.8160  11.9200  11.9200
    12.3620  12.3620  14.8775  14.8775  14.9509  14.9509  17.5511  17.5511
    17.9301  17.9301  18.3255  18.3255  19.1640  19.1640

     occupation numbers 
     1.0000   1.0000   1.0000   1.0000   1.0000   1.0000   1.0000   1.0000
     1.0000   1.0000   1.0000   1.0000   1.0000   1.0000   1.0000   1.0000
     1.0000   1.0000   1.0000   1.0000   1.0000   1.0000   1.0000   1.0000
     1.0000   1.0000   1.0000   1.0000   1.0000   1.0000   1.0000   1.0000
     1.0000   1.0000   1.0000   1.0000   1.0000   1.0000   1.0000   1.0000
     1.0000   1.0000   1.0000   1.0000   1.0000   1.0000   1.0000   1.0000
     1.0000   1.0000   1.0000   1.0000   1.0000   1.0000   1.0000   1.0000
     1.0000   1.0000  -0.0000  -0.0000  -0.0000  -0.0000  -0.0000  -0.0000
    -0.0000  -0.0000  -0.0000  -0.0000  -0.0000  -0.0000

          k = 0.1111 0.1111-0.7124 (  5376 PWs)   bands (ev):

   -79.4277 -79.4277 -79.4277 -79.4277 -46.2764 -46.2764 -46.2755 -46.2755
   -32.8742 -32.8742 -32.8605 -32.8605 -32.6628 -32.6628 -32.6541 -32.6541
    -5.8174  -5.8174  -5.7488  -5.7488  -5.4686  -5.4686  -5.3531  -5.3531
     5.6568   5.6568   5.8006   5.8006   6.1696   6.1696   6.6067   6.6067
     6.8697   6.8697   7.8938   7.8938   8.0789   8.0789   8.2440   8.2440
     8.6403   8.6403   8.9191   8.9191   9.6188   9.6188   9.9473   9.9473
    11.8467  11.8467  11.8822  11.8822  12.6184  12.6184  13.0398  13.0398
    13.8479  13.8479  14.3631  14.3631  15.3627  15.3627  16.0706  16.0706
    16.6769  16.6769  17.4114  17.4114  22.9022  22.9085

     occupation numbers 
     1.0000   1.0000   1.0000   1.0000   1.0000   1.0000   1.0000   1.0000
     1.0000   1.0000   1.0000   1.0000   1.0000   1.0000   1.0000   1.0000
     1.0000   1.0000   1.0000   1.0000   1.0000   1.0000   1.0000   1.0000
     1.0000   1.0000   1.0000   1.0000   1.0000   1.0000   1.0000   1.0000
     1.0000   1.0000   1.0000   1.0000   1.0000   1.0000   1.0000   1.0000
     1.0000   1.0000   1.0000   1.0000   1.0000   1.0000   1.0000   1.0000
     1.0000   1.0000   1.0000   1.0000   1.0000   1.0000   1.0000   1.0000
     1.0077   1.0077  -0.0000  -0.0000  -0.0000  -0.0000  -0.0000  -0.0000
    -0.0000  -0.0000  -0.0000  -0.0000  -0.0000  -0.0000

          k = 0.1111 0.2222 0.0000 (  5375 PWs)   bands (ev):

   -79.4304 -79.4304 -79.4295 -79.4295 -46.2685 -46.2685 -46.2608 -46.2608
   -32.8088 -32.8088 -32.8059 -32.8059 -32.6560 -32.6560 -32.6403 -32.6403
    -6.8906  -6.8906  -5.9502  -5.9502  -5.2425  -5.2425  -4.9752  -4.9752
     4.4515   4.4515   5.1736   5.1736   6.0657   6.0657   6.1988   6.1988
     6.6215   6.6215   7.7787   7.7787   8.6029   8.6029   8.8090   8.8090
     9.6666   9.6666   9.9208   9.9208  10.3769  10.3769  11.2959  11.2959
    11.3670  11.3670  11.7157  11.7157  12.0437  12.0437  12.2406  12.2406
    12.6651  12.6651  14.6447  14.6447  15.3722  15.3722  17.4076  17.4076
    17.8278  17.8278  18.8140  18.8140  18.9362  18.9362

     occupation numbers 
     1.0000   1.0000   1.0000   1.0000   1.0000   1.0000   1.0000   1.0000
     1.0000   1.0000   1.0000   1.0000   1.0000   1.0000   1.0000   1.0000
     1.0000   1.0000   1.0000   1.0000   1.0000   1.0000   1.0000   1.0000
     1.0000   1.0000   1.0000   1.0000   1.0000   1.0000   1.0000   1.0000
     1.0000   1.0000   1.0000   1.0000   1.0000   1.0000   1.0000   1.0000
     1.0000   1.0000   1.0000   1.0000   1.0000   1.0000   1.0000   1.0000
     1.0000   1.0000   1.0000   1.0000   1.0000   1.0000   1.0000   1.0000
     1.0000   1.0000  -0.0000  -0.0000  -0.0000  -0.0000  -0.0000  -0.0000
    -0.0000  -0.0000  -0.0000  -0.0000  -0.0000  -0.0000

          k = 0.1111 0.2222-0.7124 (  5368 PWs)   bands (ev):

   -79.4277 -79.4277 -79.4277 -79.4277 -46.2766 -46.2766 -46.2753 -46.2753
   -32.8774 -32.8774 -32.8576 -32.8576 -32.6648 -32.6648 -32.6521 -32.6521
    -5.8469  -5.8469  -5.7533  -5.7533  -5.4677  -5.4677  -5.3094  -5.3094
     5.5867   5.5867   5.8552   5.8552   6.0323   6.0323   6.3043   6.3043
     7.0052   7.0052   7.9929   7.9929   8.2374   8.2374   8.3784   8.3784
     8.9354   8.9354   9.2631   9.2631   9.3312   9.3312   9.9203   9.9203
    11.8264  11.8264  11.8538  11.8538  12.2762  12.2762  12.8068  12.8068
    13.8159  13.8159  14.4585  14.4585  15.0961  15.0961  15.8052  15.8052
    17.0861  17.0861  17.8389  17.8389  22.9191  22.9201

     occupation numbers 
     1.0000   1.0000   1.0000   1.0000   1.0000   1.0000   1.0000   1.0000
     1.0000   1.0000   1.0000   1.0000   1.0000   1.0000   1.0000   1.0000
     1.0000   1.0000   1.0000   1.0000   1.0000   1.0000   1.0000   1.0000
     1.0000   1.0000   1.0000   1.0000   1.0000   1.0000   1.0000   1.0000
     1.0000   1.0000   1.0000   1.0000   1.0000   1.0000   1.0000   1.0000
     1.0000   1.0000   1.0000   1.0000   1.0000   1.0000   1.0000   1.0000
     1.0000   1.0000   1.0000   1.0000   1.0000   1.0000   1.0000   1.0000
     1.0013   1.0013  -0.0000  -0.0000  -0.0000  -0.0000  -0.0000  -0.0000
    -0.0000  -0.0000  -0.0000  -0.0000  -0.0000  -0.0000

          k = 0.1111 0.3333 0.0000 (  5386 PWs)   bands (ev):

   -79.4303 -79.4303 -79.4297 -79.4297 -46.2672 -46.2672 -46.2622 -46.2622
   -32.8077 -32.8077 -32.8056 -32.8056 -32.6542 -32.6542 -32.6439 -32.6439
    -6.6968  -6.6968  -6.0253  -6.0253  -5.3278  -5.3278  -5.0865  -5.0865
     4.7439   4.7439   5.5446   5.5446   6.1067   6.1067   6.2302   6.2302
     6.9811   6.9811   7.3255   7.3255   8.3131   8.3131   8.6214   8.6214
     9.1651   9.1651   9.3119   9.3119  10.3828  10.3828  11.0697  11.0697
    11.6976  11.6976  11.9601  11.9601  12.1786  12.1786  12.4570  12.4570
    13.0303  13.0303  14.3022  14.3022  16.0216  16.0216  17.3067  17.3067
    17.6439  17.6439  18.3048  18.3048  19.7078  19.7078

     occupation numbers 
     1.0000   1.0000   1.0000   1.0000   1.0000   1.0000   1.0000   1.0000
     1.0000   1.0000   1.0000   1.0000   1.0000   1.0000   1.0000   1.0000
     1.0000   1.0000   1.0000   1.0000   1.0000   1.0000   1.0000   1.0000
     1.0000   1.0000   1.0000   1.0000   1.0000   1.0000   1.0000   1.0000
     1.0000   1.0000   1.0000   1.0000   1.0000   1.0000   1.0000   1.0000
     1.0000   1.0000   1.0000   1.0000   1.0000   1.0000   1.0000   1.0000
     1.0000   1.0000   1.0000   1.0000   1.0000   1.0000   1.0000   1.0000
     1.0000   1.0000  -0.0000  -0.0000  -0.0000  -0.0000  -0.0000  -0.0000
    -0.0000  -0.0000  -0.0000  -0.0000  -0.0000  -0.0000

          k = 0.1111 0.3333-0.7124 (  5366 PWs)   bands (ev):

   -79.4277 -79.4277 -79.4277 -79.4277 -46.2768 -46.2768 -46.2751 -46.2751
   -32.8801 -32.8801 -32.8551 -32.8551 -32.6664 -32.6664 -32.6505 -32.6505
    -5.8592  -5.8592  -5.7865  -5.7865  -5.4424  -5.4424  -5.2772  -5.2772
     5.4928   5.4928   5.7315   5.7315   6.0378   6.0378   6.1770   6.1770
     7.2371   7.2371   7.9175   7.9175   8.2631   8.2631   8.6145   8.6145
     8.8693   8.8693   9.4534   9.4534   9.6271   9.6271  10.1142  10.1142
    11.5566  11.5566  11.8436  11.8436  11.9581  11.9581  12.4086  12.4086
    13.9335  13.9335  14.4567  14.4567  14.9834  14.9834  15.4471  15.4471
    17.6200  17.6200  18.1466  18.1466  22.9912  22.9923

     occupation numbers 
     1.0000   1.0000   1.0000   1.0000   1.0000   1.0000   1.0000   1.0000
     1.0000   1.0000   1.0000   1.0000   1.0000   1.0000   1.0000   1.0000
     1.0000   1.0000   1.0000   1.0000   1.0000   1.0000   1.0000   1.0000
     1.0000   1.0000   1.0000   1.0000   1.0000   1.0000   1.0000   1.0000
     1.0000   1.0000   1.0000   1.0000   1.0000   1.0000   1.0000   1.0000
     1.0000   1.0000   1.0000   1.0000   1.0000   1.0000   1.0000   1.0000
     1.0000   1.0000   1.0000   1.0000   1.0000   1.0000   1.0000   1.0000
     0.9765   0.9765  -0.0000  -0.0000  -0.0000  -0.0000  -0.0000  -0.0000
    -0.0000  -0.0000  -0.0000  -0.0000  -0.0000  -0.0000

          k = 0.1111 0.4444 0.0000 (  5375 PWs)   bands (ev):

   -79.4301 -79.4301 -79.4299 -79.4299 -46.2656 -46.2656 -46.2638 -46.2638
   -32.8066 -32.8066 -32.8058 -32.8058 -32.6515 -32.6515 -32.6479 -32.6479
    -6.4572  -6.4572  -6.2117  -6.2117  -5.3076  -5.3076  -5.2099  -5.2099
     5.1523   5.1523   5.5280   5.5280   6.1600   6.1600   6.2150   6.2150
     7.2591   7.2591   7.4993   7.4993   7.8841   7.8841   8.3639   8.3639
     8.7452   8.7452   8.9736   8.9736  10.5432  10.5432  10.7916  10.7916
    11.9743  11.9743  12.0953  12.0953  12.2967  12.2967  12.4611  12.4611
    13.4557  13.4557  13.8937  13.8937  16.7599  16.7599  17.2856  17.2856
    17.4380  17.4380  17.6985  17.6985  20.5263  20.5263

     occupation numbers 
     1.0000   1.0000   1.0000   1.0000   1.0000   1.0000   1.0000   1.0000
     1.0000   1.0000   1.0000   1.0000   1.0000   1.0000   1.0000   1.0000
     1.0000   1.0000   1.0000   1.0000   1.0000   1.0000   1.0000   1.0000
     1.0000   1.0000   1.0000   1.0000   1.0000   1.0000   1.0000   1.0000
     1.0000   1.0000   1.0000   1.0000   1.0000   1.0000   1.0000   1.0000
     1.0000   1.0000   1.0000   1.0000   1.0000   1.0000   1.0000   1.0000
     1.0000   1.0000   1.0000   1.0000   1.0000   1.0000   1.0000   1.0000
     1.0000   1.0000   1.0338   1.0338  -0.0000  -0.0000  -0.0000  -0.0000
    -0.0000  -0.0000  -0.0000  -0.0000  -0.0000  -0.0000

          k = 0.1111 0.4444-0.7124 (  5356 PWs)   bands (ev):

   -79.4277 -79.4277 -79.4277 -79.4277 -46.2769 -46.2769 -46.2751 -46.2751
   -32.8816 -32.8816 -32.8537 -32.8537 -32.6674 -32.6674 -32.6496 -32.6496
    -5.8514  -5.8514  -5.8243  -5.8243  -5.4203  -5.4203  -5.2613  -5.2613
     5.4610   5.4610   5.5497   5.5497   6.1034   6.1034   6.1673   6.1673
     7.4434   7.4434   7.8556   7.8556   8.3063   8.3063   8.4683   8.4683
     8.9624   8.9624   9.2532   9.2532  10.2669  10.2669  10.5849  10.5849
    11.1349  11.1349  11.4453  11.4453  11.8796  11.8796  12.2332  12.2332
    14.0410  14.0410  14.4166  14.4166  15.0100  15.0100  15.1714  15.1714
    18.0158  18.0158  18.2537  18.2537  23.1122  23.1122

     occupation numbers 
     1.0000   1.0000   1.0000   1.0000   1.0000   1.0000   1.0000   1.0000
     1.0000   1.0000   1.0000   1.0000   1.0000   1.0000   1.0000   1.0000
     1.0000   1.0000   1.0000   1.0000   1.0000   1.0000   1.0000   1.0000
     1.0000   1.0000   1.0000   1.0000   1.0000   1.0000   1.0000   1.0000
     1.0000   1.0000   1.0000   1.0000   1.0000   1.0000   1.0000   1.0000
     1.0000   1.0000   1.0000   1.0000   1.0000   1.0000   1.0000   1.0000
     1.0000   1.0000   1.0000   1.0000   1.0000   1.0000   1.0000   1.0000
     0.0029   0.0029  -0.0000  -0.0000  -0.0000  -0.0000  -0.0000  -0.0000
    -0.0000  -0.0000  -0.0000  -0.0000  -0.0000  -0.0000

          k = 0.2222 0.2222 0.0000 (  5375 PWs)   bands (ev):

   -79.4304 -79.4304 -79.4296 -79.4296 -46.2678 -46.2678 -46.2615 -46.2615
   -32.8087 -32.8087 -32.8056 -32.8056 -32.6550 -32.6550 -32.6420 -32.6420
    -6.7976  -6.7976  -5.9884  -5.9884  -5.3198  -5.3198  -4.9782  -4.9782
     4.3547   4.3547   5.5552   5.5552   6.0459   6.0459   6.2320   6.2320
     6.8246   6.8246   7.3136   7.3136   8.5968   8.5968   8.9045   8.9045
     9.6889   9.6889   9.8882   9.8882  10.1361  10.1361  11.1017  11.1017
    11.1951  11.1951  11.6463  11.6463  12.1550  12.1550  12.4445  12.4445
    12.9492  12.9492  14.5137  14.5137  15.4981  15.4981  17.3159  17.3159
    17.8302  17.8302  18.4838  18.4838  19.5117  19.5117

     occupation numbers 
     1.0000   1.0000   1.0000   1.0000   1.0000   1.0000   1.0000   1.0000
     1.0000   1.0000   1.0000   1.0000   1.0000   1.0000   1.0000   1.0000
     1.0000   1.0000   1.0000   1.0000   1.0000   1.0000   1.0000   1.0000
     1.0000   1.0000   1.0000   1.0000   1.0000   1.0000   1.0000   1.0000
     1.0000   1.0000   1.0000   1.0000   1.0000   1.0000   1.0000   1.0000
     1.0000   1.0000   1.0000   1.0000   1.0000   1.0000   1.0000   1.0000
     1.0000   1.0000   1.0000   1.0000   1.0000   1.0000   1.0000   1.0000
     1.0000   1.0000  -0.0000  -0.0000  -0.0000  -0.0000  -0.0000  -0.0000
    -0.0000  -0.0000  -0.0000  -0.0000  -0.0000  -0.0000

          k = 0.2222 0.2222-0.7124 (  5368 PWs)   bands (ev):

   -79.4277 -79.4277 -79.4277 -79.4277 -46.2766 -46.2766 -46.2753 -46.2753
   -32.8780 -32.8780 -32.8571 -32.8571 -32.6652 -32.6652 -32.6518 -32.6518
    -5.8626  -5.8626  -5.7112  -5.7112  -5.5018  -5.5018  -5.2933  -5.2933
     5.5076   5.5076   5.8791   5.8791   6.0990   6.0990   6.3652   6.3652
     6.5807   6.5807   8.0049   8.0049   8.2807   8.2807   8.7932   8.7932
     8.9478   8.9478   9.0529   9.0529   9.5684   9.5684  10.1211  10.1211
    11.7067  11.7067  11.8568  11.8568  12.1298  12.1298  12.9098  12.9098
    13.5266  13.5266  14.5028  14.5028  14.9474  14.9474  16.0593  16.0593
    16.8989  16.8989  18.0626  18.0626  22.9183  22.9183

     occupation numbers 
     1.0000   1.0000   1.0000   1.0000   1.0000   1.0000   1.0000   1.0000
     1.0000   1.0000   1.0000   1.0000   1.0000   1.0000   1.0000   1.0000
     1.0000   1.0000   1.0000   1.0000   1.0000   1.0000   1.0000   1.0000
     1.0000   1.0000   1.0000   1.0000   1.0000   1.0000   1.0000   1.0000
     1.0000   1.0000   1.0000   1.0000   1.0000   1.0000   1.0000   1.0000
     1.0000   1.0000   1.0000   1.0000   1.0000   1.0000   1.0000   1.0000
     1.0000   1.0000   1.0000   1.0000   1.0000   1.0000   1.0000   1.0000
     1.0000   1.0000  -0.0000  -0.0000  -0.0000  -0.0000  -0.0000  -0.0000
    -0.0000  -0.0000  -0.0000  -0.0000  -0.0000  -0.0000

          k = 0.2222 0.3333 0.0000 (  5388 PWs)   bands (ev):

   -79.4302 -79.4302 -79.4297 -79.4297 -46.2667 -46.2667 -46.2626 -46.2626
   -32.8082 -32.8082 -32.8058 -32.8058 -32.6532 -32.6532 -32.6446 -32.6446
    -6.6529  -6.6529  -6.1002  -6.1002  -5.3241  -5.3241  -5.0370  -5.0370
     4.4578   4.4578   5.5369   5.5369   6.0517   6.0517   6.2128   6.2128
     7.1443   7.1443   7.3879   7.3879   8.6346   8.6346   8.7124   8.7124
     9.4890   9.4890   9.5648   9.5648   9.9880   9.9880  10.8634  10.8634
    11.3635  11.3635  11.7710  11.7710  12.1567  12.1567  12.4693  12.4693
    13.2818  13.2818  14.2835  14.2835  15.8831  15.8831  17.3344  17.3344
    17.6474  17.6474  18.0446  18.0446  20.2423  20.2423

     occupation numbers 
     1.0000   1.0000   1.0000   1.0000   1.0000   1.0000   1.0000   1.0000
     1.0000   1.0000   1.0000   1.0000   1.0000   1.0000   1.0000   1.0000
     1.0000   1.0000   1.0000   1.0000   1.0000   1.0000   1.0000   1.0000
     1.0000   1.0000   1.0000   1.0000   1.0000   1.0000   1.0000   1.0000
     1.0000   1.0000   1.0000   1.0000   1.0000   1.0000   1.0000   1.0000
     1.0000   1.0000   1.0000   1.0000   1.0000   1.0000   1.0000   1.0000
     1.0000   1.0000   1.0000   1.0000   1.0000   1.0000   1.0000   1.0000
     1.0000   1.0000  -0.0000  -0.0000  -0.0000  -0.0000  -0.0000  -0.0000
    -0.0000  -0.0000  -0.0000  -0.0000  -0.0000  -0.0000

          k = 0.2222 0.3333-0.7124 (  5370 PWs)   bands (ev):

   -79.4277 -79.4277 -79.4277 -79.4277 -46.2767 -46.2767 -46.2752 -46.2752
   -32.8787 -32.8787 -32.8565 -32.8565 -32.6657 -32.6657 -32.6515 -32.6515
    -5.8528  -5.8528  -5.7204  -5.7204  -5.4922  -5.4922  -5.2937  -5.2937
     5.4717   5.4717   5.8494   5.8494   6.0586   6.0586   6.1784   6.1784
     6.7687   6.7687   7.9263   7.9263   8.2714   8.2714   8.4105   8.4105
     9.0849   9.0849   9.6058   9.6058   9.7013   9.7013  10.4565  10.4565
    11.4563  11.4563  11.8651  11.8651  12.0367  12.0367  12.6115  12.6115
    13.6005  13.6005  14.4124  14.4124  14.9722  14.9722  15.8186  15.8186
    17.2330  17.2330  18.1379  18.1379  22.9861  22.9861

     occupation numbers 
     1.0000   1.0000   1.0000   1.0000   1.0000   1.0000   1.0000   1.0000
     1.0000   1.0000   1.0000   1.0000   1.0000   1.0000   1.0000   1.0000
     1.0000   1.0000   1.0000   1.0000   1.0000   1.0000   1.0000   1.0000
     1.0000   1.0000   1.0000   1.0000   1.0000   1.0000   1.0000   1.0000
     1.0000   1.0000   1.0000   1.0000   1.0000   1.0000   1.0000   1.0000
     1.0000   1.0000   1.0000   1.0000   1.0000   1.0000   1.0000   1.0000
     1.0000   1.0000   1.0000   1.0000   1.0000   1.0000   1.0000   1.0000
     1.0000   1.0000  -0.0000  -0.0000  -0.0000  -0.0000  -0.0000  -0.0000
    -0.0000  -0.0000  -0.0000  -0.0000  -0.0000  -0.0000

          k = 0.2222 0.4444 0.0000 (  5389 PWs)   bands (ev):

   -79.4301 -79.4301 -79.4299 -79.4299 -46.2654 -46.2654 -46.2640 -46.2640
   -32.8073 -32.8073 -32.8064 -32.8064 -32.6506 -32.6506 -32.6476 -32.6476
    -6.4715  -6.4715  -6.2760  -6.2760  -5.2486  -5.2486  -5.1382  -5.1382
     4.7423   4.7423   5.1512   5.1512   6.0879   6.0879   6.1478   6.1478
     7.5709   7.5709   7.8237   7.8237   8.3425   8.3425   8.7750   8.7750
     8.9910   8.9910   9.2140   9.2140  10.1867  10.1867  10.5172  10.5172
    11.7078  11.7078  11.9290  11.9290  12.1137  12.1137  12.3101  12.3101
    13.6352  13.6352  13.9814  13.9814  16.4640  16.4640  17.1035  17.1035
    17.5136  17.5136  17.7365  17.7365  20.9723  20.9723

     occupation numbers 
     1.0000   1.0000   1.0000   1.0000   1.0000   1.0000   1.0000   1.0000
     1.0000   1.0000   1.0000   1.0000   1.0000   1.0000   1.0000   1.0000
     1.0000   1.0000   1.0000   1.0000   1.0000   1.0000   1.0000   1.0000
     1.0000   1.0000   1.0000   1.0000   1.0000   1.0000   1.0000   1.0000
     1.0000   1.0000   1.0000   1.0000   1.0000   1.0000   1.0000   1.0000
     1.0000   1.0000   1.0000   1.0000   1.0000   1.0000   1.0000   1.0000
     1.0000   1.0000   1.0000   1.0000   1.0000   1.0000   1.0000   1.0000
     1.0000   1.0000   0.5402   0.5402  -0.0000  -0.0000  -0.0000  -0.0000
    -0.0000  -0.0000  -0.0000  -0.0000  -0.0000  -0.0000

          k = 0.2222 0.4444-0.7124 (  5352 PWs)   bands (ev):

   -79.4277 -79.4277 -79.4277 -79.4277 -46.2767 -46.2767 -46.2752 -46.2752
   -32.8791 -32.8791 -32.8562 -32.8562 -32.6660 -32.6660 -32.6513 -32.6513
    -5.8207  -5.8207  -5.7676  -5.7676  -5.4588  -5.4588  -5.3057  -5.3057
     5.5186   5.5186   5.6722   5.6722   6.0068   6.0068   6.1473   6.1473
     7.1574   7.1574   7.6049   7.6049   8.1935   8.1935   8.3096   8.3096
     9.2796   9.2796   9.4906   9.4906  10.2744  10.2744  10.6664  10.6664
    11.3603  11.3603  11.7481  11.7481  11.9134  11.9134  12.3083  12.3083
    13.8181  13.8181  14.2519  14.2519  15.1491  15.1491  15.4499  15.4499
    17.6782  17.6782  18.0249  18.0249  23.1237  23.1237

     occupation numbers 
     1.0000   1.0000   1.0000   1.0000   1.0000   1.0000   1.0000   1.0000
     1.0000   1.0000   1.0000   1.0000   1.0000   1.0000   1.0000   1.0000
     1.0000   1.0000   1.0000   1.0000   1.0000   1.0000   1.0000   1.0000
     1.0000   1.0000   1.0000   1.0000   1.0000   1.0000   1.0000   1.0000
     1.0000   1.0000   1.0000   1.0000   1.0000   1.0000   1.0000   1.0000
     1.0000   1.0000   1.0000   1.0000   1.0000   1.0000   1.0000   1.0000
     1.0000   1.0000   1.0000   1.0000   1.0000   1.0000   1.0000   1.0000
     1.0015   1.0015  -0.0000  -0.0000  -0.0000  -0.0000  -0.0000  -0.0000
    -0.0000  -0.0000  -0.0000  -0.0000  -0.0000  -0.0000

          k = 0.3333 0.3333 0.0000 (  5393 PWs)   bands (ev):

   -79.4301 -79.4301 -79.4298 -79.4298 -46.2660 -46.2660 -46.2634 -46.2634
   -32.8084 -32.8084 -32.8064 -32.8064 -32.6515 -32.6515 -32.6458 -32.6458
    -6.5790  -6.5790  -6.2185  -6.2185  -5.2611  -5.2611  -5.0311  -5.0311
     4.3567   4.3567   5.1520   5.1520   6.0209   6.0209   6.1427   6.1427
     7.4989   7.4989   7.8741   7.8741   8.7937   8.7937   8.8788   8.8788
     9.5960   9.5960   9.6247   9.6247   9.7388   9.7388  10.6754  10.6754
    11.1452  11.1452  11.6418  11.6418  12.0356  12.0356  12.3148  12.3148
    13.5708  13.5708  14.2019  14.2019  15.9283  15.9283  17.2242  17.2242
    17.5043  17.5043  17.9515  17.9515  20.8884  20.8884

     occupation numbers 
     1.0000   1.0000   1.0000   1.0000   1.0000   1.0000   1.0000   1.0000
     1.0000   1.0000   1.0000   1.0000   1.0000   1.0000   1.0000   1.0000
     1.0000   1.0000   1.0000   1.0000   1.0000   1.0000   1.0000   1.0000
     1.0000   1.0000   1.0000   1.0000   1.0000   1.0000   1.0000   1.0000
     1.0000   1.0000   1.0000   1.0000   1.0000   1.0000   1.0000   1.0000
     1.0000   1.0000   1.0000   1.0000   1.0000   1.0000   1.0000   1.0000
     1.0000   1.0000   1.0000   1.0000   1.0000   1.0000   1.0000   1.0000
     1.0000   1.0000  -0.0000  -0.0000  -0.0000  -0.0000  -0.0000  -0.0000
    -0.0000  -0.0000  -0.0000  -0.0000  -0.0000  -0.0000

          k = 0.3333 0.3333-0.7124 (  5358 PWs)   bands (ev):

   -79.4277 -79.4277 -79.4277 -79.4277 -46.2766 -46.2766 -46.2754 -46.2754
   -32.8768 -32.8768 -32.8584 -32.8584 -32.6647 -32.6647 -32.6529 -32.6529
    -5.8194  -5.8194  -5.6690  -5.6690  -5.5344  -5.5344  -5.3293  -5.3293
     5.5066   5.5066   5.8598   5.8598   6.0163   6.0163   6.3395   6.3395
     6.4625   6.4625   7.7027   7.7027   8.1657   8.1657   8.2870   8.2870
     9.3316   9.3316   9.6765   9.6765  10.0188  10.0188  10.7178  10.7178
    11.4671  11.4671  11.8837  11.8837  12.0651  12.0651  12.7633  12.7633
    13.3337  13.3337  14.2376  14.2376  15.1311  15.1311  16.0435  16.0435
    17.0077  17.0077  17.9689  17.9689  23.0235  23.0236

     occupation numbers 
     1.0000   1.0000   1.0000   1.0000   1.0000   1.0000   1.0000   1.0000
     1.0000   1.0000   1.0000   1.0000   1.0000   1.0000   1.0000   1.0000
     1.0000   1.0000   1.0000   1.0000   1.0000   1.0000   1.0000   1.0000
     1.0000   1.0000   1.0000   1.0000   1.0000   1.0000   1.0000   1.0000
     1.0000   1.0000   1.0000   1.0000   1.0000   1.0000   1.0000   1.0000
     1.0000   1.0000   1.0000   1.0000   1.0000   1.0000   1.0000   1.0000
     1.0000   1.0000   1.0000   1.0000   1.0000   1.0000   1.0000   1.0000
     1.0000   1.0000  -0.0000  -0.0000  -0.0000  -0.0000  -0.0000  -0.0000
    -0.0000  -0.0000  -0.0000  -0.0000  -0.0000  -0.0000

          k = 0.3333 0.4444 0.0000 (  5392 PWs)   bands (ev):

   -79.4300 -79.4300 -79.4299 -79.4299 -46.2652 -46.2652 -46.2643 -46.2643
   -32.8080 -32.8080 -32.8072 -32.8072 -32.6495 -32.6495 -32.6475 -32.6475
    -6.4767  -6.4767  -6.3520  -6.3520  -5.1663  -5.1663  -5.0791  -5.0791
     4.4567   4.4567   4.7407   4.7407   6.0289   6.0289   6.0739   6.0739
     7.9186   7.9186   8.2545   8.2545   8.7578   8.7578   9.0940   9.0940
     9.3536   9.3536   9.4831   9.4831   9.8653   9.8653  10.3088  10.3088
    11.3509  11.3509  11.6369  11.6369  11.8918  11.8918  12.0756  12.0756
    13.8306  13.8306  14.0472  14.0472  16.2212  16.2212  16.6937  16.6937
    17.6915  17.6915  17.8592  17.8592  21.5170  21.5173

     occupation numbers 
     1.0000   1.0000   1.0000   1.0000   1.0000   1.0000   1.0000   1.0000
     1.0000   1.0000   1.0000   1.0000   1.0000   1.0000   1.0000   1.0000
     1.0000   1.0000   1.0000   1.0000   1.0000   1.0000   1.0000   1.0000
     1.0000   1.0000   1.0000   1.0000   1.0000   1.0000   1.0000   1.0000
     1.0000   1.0000   1.0000   1.0000   1.0000   1.0000   1.0000   1.0000
     1.0000   1.0000   1.0000   1.0000   1.0000   1.0000   1.0000   1.0000
     1.0000   1.0000   1.0000   1.0000   1.0000   1.0000   1.0000   1.0000
     1.0031   1.0031  -0.0147  -0.0147  -0.0000  -0.0000  -0.0000  -0.0000
    -0.0000  -0.0000  -0.0000  -0.0000  -0.0000  -0.0000

          k = 0.3333 0.4444-0.7124 (  5374 PWs)   bands (ev):

   -79.4277 -79.4277 -79.4277 -79.4277 -46.2765 -46.2765 -46.2755 -46.2755
   -32.8753 -32.8753 -32.8598 -32.8598 -32.6638 -32.6638 -32.6539 -32.6539
    -5.7675  -5.7675  -5.6940  -5.6940  -5.5125  -5.5125  -5.3736  -5.3736
     5.6015   5.6015   5.7825   5.7825   5.9442   5.9442   6.2020   6.2020
     6.7951   6.7951   7.2503   7.2503   8.1585   8.1585   8.2812   8.2812
     9.4892   9.4892   9.6177   9.6177  10.4114  10.4114  10.6909  10.6909
    11.6980  11.6980  11.8875  11.8875  12.0678  12.0678  12.5092  12.5092
    13.5124  13.5124  13.9744  13.9744  15.4339  15.4339  15.8099  15.8099
    17.2555  17.2555  17.6583  17.6583  23.0992  23.1006

     occupation numbers 
     1.0000   1.0000   1.0000   1.0000   1.0000   1.0000   1.0000   1.0000
     1.0000   1.0000   1.0000   1.0000   1.0000   1.0000   1.0000   1.0000
     1.0000   1.0000   1.0000   1.0000   1.0000   1.0000   1.0000   1.0000
     1.0000   1.0000   1.0000   1.0000   1.0000   1.0000   1.0000   1.0000
     1.0000   1.0000   1.0000   1.0000   1.0000   1.0000   1.0000   1.0000
     1.0000   1.0000   1.0000   1.0000   1.0000   1.0000   1.0000   1.0000
     1.0000   1.0000   1.0000   1.0000   1.0000   1.0000   1.0000   1.0000
     1.0000   1.0000   0.6246   0.6246  -0.0000  -0.0000  -0.0000  -0.0000
    -0.0000  -0.0000  -0.0000  -0.0000  -0.0000  -0.0000

          k = 0.4444 0.4444 0.0000 (  5408 PWs)   bands (ev):

   -79.4300 -79.4300 -79.4300 -79.4300 -46.2649 -46.2649 -46.2646 -46.2646
   -32.8083 -32.8083 -32.8080 -32.8080 -32.6484 -32.6484 -32.6477 -32.6477
    -6.4602  -6.4602  -6.4175  -6.4175  -5.0948  -5.0948  -5.0618  -5.0618
     4.3555   4.3555   4.4558   4.4558   6.0035   6.0035   6.0201   6.0201
     8.3198   8.3198   8.6638   8.6638   8.7359   8.7359   9.0882   9.0882
     9.4861   9.4861   9.5930   9.5930  10.0475  10.0475  10.3535  10.3535
    11.1113  11.1113  11.3084  11.3084  11.7352  11.7352  11.8349  11.8349
    13.9732  13.9732  14.0468  14.0468  16.1701  16.1701  16.3428  16.3428
    17.8453  17.8453  17.9079  17.9079  22.0439  22.0439

     occupation numbers 
     1.0000   1.0000   1.0000   1.0000   1.0000   1.0000   1.0000   1.0000
     1.0000   1.0000   1.0000   1.0000   1.0000   1.0000   1.0000   1.0000
     1.0000   1.0000   1.0000   1.0000   1.0000   1.0000   1.0000   1.0000
     1.0000   1.0000   1.0000   1.0000   1.0000   1.0000   1.0000   1.0000
     1.0000   1.0000   1.0000   1.0000   1.0000   1.0000   1.0000   1.0000
     1.0000   1.0000   1.0000   1.0000   1.0000   1.0000   1.0000   1.0000
     1.0000   1.0000   1.0000   1.0000   1.0000   1.0000   1.0000   1.0000
     0.6395   0.6395  -0.0139  -0.0139  -0.0000  -0.0000  -0.0000  -0.0000
    -0.0000  -0.0000  -0.0000  -0.0000  -0.0000  -0.0000

          k = 0.4444 0.4444-0.7124 (  5374 PWs)   bands (ev):

   -79.4277 -79.4277 -79.4277 -79.4277 -46.2762 -46.2762 -46.2758 -46.2758
   -32.8712 -32.8712 -32.8639 -32.8639 -32.6613 -32.6613 -32.6567 -32.6567
    -5.7046  -5.7046  -5.6469  -5.6469  -5.5418  -5.5418  -5.4509  -5.4509
     5.6693   5.6693   5.7486   5.7486   6.0595   6.0595   6.2953   6.2953
     6.5992   6.5992   6.8726   6.8726   8.1930   8.1930   8.2551   8.2551
     9.5972   9.5972   9.6429   9.6429  10.5788  10.5788  10.6775  10.6775
    11.8753  11.8753  11.9079  11.9079  12.3527  12.3527  12.6600  12.6600
    13.3429  13.3429  13.6433  13.6433  15.8020  15.8020  16.0318  16.0318
    16.9984  16.9984  17.2387  17.2387  23.0583  23.0583

     occupation numbers 
     1.0000   1.0000   1.0000   1.0000   1.0000   1.0000   1.0000   1.0000
     1.0000   1.0000   1.0000   1.0000   1.0000   1.0000   1.0000   1.0000
     1.0000   1.0000   1.0000   1.0000   1.0000   1.0000   1.0000   1.0000
     1.0000   1.0000   1.0000   1.0000   1.0000   1.0000   1.0000   1.0000
     1.0000   1.0000   1.0000   1.0000   1.0000   1.0000   1.0000   1.0000
     1.0000   1.0000   1.0000   1.0000   1.0000   1.0000   1.0000   1.0000
     1.0000   1.0000   1.0000   1.0000   1.0000   1.0000   1.0000   1.0000
     1.0000   1.0000   1.0000   1.0000  -0.0000  -0.0000  -0.0000  -0.0000
    -0.0000  -0.0000  -0.0000  -0.0000  -0.0000  -0.0000

     the Fermi energy is    13.9846 ev

!    total energy              =    -553.10307683 Ry
     estimated scf accuracy    <          6.6E-10 Ry
     smearing contrib. (-TS)   =      -0.00007332 Ry
     internal energy E=F+TS    =    -553.10300351 Ry

     The total energy is F=E-TS. E is the sum of the following terms:
     one-electron contribution =    -190.81453058 Ry
     hartree contribution      =     122.58820712 Ry
     xc contribution           =     -69.89066953 Ry
     ewald contribution        =    -414.98601052 Ry

     convergence has been achieved in   9 iterations

     Forces acting on atoms (cartesian axes, Ry/au):

     atom    1 type  2   force =     0.00000000    0.00000000    0.00000000
     atom    2 type  2   force =     0.00000000    0.00000000    0.00000000
     atom    3 type  1   force =    -0.01470762    0.01470762    0.00000000
     atom    4 type  1   force =     0.01470762    0.01470762   -0.00000000
     atom    5 type  1   force =    -0.01470762   -0.01470762   -0.00000000
     atom    6 type  1   force =     0.01470762   -0.01470762    0.00000000
     The non-local contrib.  to forces
     atom    1 type  2   force =     0.00000000    0.00000000    0.00000000
     atom    2 type  2   force =     0.00000000    0.00000000    0.00000000
     atom    3 type  1   force =    -0.13547492    0.13547492    0.00000000
     atom    4 type  1   force =     0.13547492    0.13547492    0.00000000
     atom    5 type  1   force =    -0.13547492   -0.13547492    0.00000000
     atom    6 type  1   force =     0.13547492   -0.13547492    0.00000000
     The ionic contribution  to forces
     atom    1 type  2   force =    -0.00000000   -0.00000000    0.00000000
     atom    2 type  2   force =     0.00000000    0.00000000   -0.00000000
     atom    3 type  1   force =     1.42937233   -1.42937233    0.00000000
     atom    4 type  1   force =    -1.42937233   -1.42937233   -0.00000000
     atom    5 type  1   force =     1.42937233    1.42937233   -0.00000000
     atom    6 type  1   force =    -1.42937233    1.42937233    0.00000000
     The local contribution  to forces
     atom    1 type  2   force =     0.00000000    0.00000000   -0.00000000
     atom    2 type  2   force =     0.00000000    0.00000000    0.00000000
     atom    3 type  1   force =    -1.30860278    1.30860278    0.00000000
     atom    4 type  1   force =     1.30860278    1.30860278    0.00000000
     atom    5 type  1   force =    -1.30860278   -1.30860278    0.00000000
     atom    6 type  1   force =     1.30860278   -1.30860278    0.00000000
     The core correction contribution to forces
     atom    1 type  2   force =     0.00000000    0.00000000    0.00000000
     atom    2 type  2   force =     0.00000000    0.00000000    0.00000000
     atom    3 type  1   force =     0.00000000    0.00000000    0.00000000
     atom    4 type  1   force =     0.00000000    0.00000000    0.00000000
     atom    5 type  1   force =     0.00000000    0.00000000    0.00000000
     atom    6 type  1   force =     0.00000000    0.00000000    0.00000000
     The Hubbard contrib.    to forces
     atom    1 type  2   force =     0.00000000    0.00000000    0.00000000
     atom    2 type  2   force =     0.00000000    0.00000000    0.00000000
     atom    3 type  1   force =     0.00000000    0.00000000    0.00000000
     atom    4 type  1   force =     0.00000000    0.00000000    0.00000000
     atom    5 type  1   force =     0.00000000    0.00000000    0.00000000
     atom    6 type  1   force =     0.00000000    0.00000000    0.00000000
     The SCF correction term to forces
     atom    1 type  2   force =    -0.00000000   -0.00000000   -0.00000000
     atom    2 type  2   force =     0.00000000    0.00000000    0.00000000
     atom    3 type  1   force =    -0.00000225    0.00000225    0.00000000
     atom    4 type  1   force =     0.00000225    0.00000225   -0.00000000
     atom    5 type  1   force =    -0.00000225   -0.00000225   -0.00000000
     atom    6 type  1   force =     0.00000225   -0.00000225    0.00000000

     Total force =     0.041599     Total SCF correction =     0.000006


     Computing stress (Cartesian axis) and pressure

          total   stress  (Ry/bohr**3)                   (kbar)     P=      -49.36
  -0.00022662   0.00000000   0.00000000          -33.34        0.00        0.00
   0.00000000  -0.00022662   0.00000000            0.00      -33.34        0.00
   0.00000000   0.00000000  -0.00055347            0.00        0.00      -81.42

     kinetic stress (kbar)  48398.38      0.00      0.00
                                0.00  48398.38      0.00
                                0.00      0.00  47563.56

     local   stress (kbar) -12645.16      0.00     -0.00
                                0.00 -12645.16      0.00
                               -0.00      0.00 -44416.77

     nonloc. stress (kbar)  14541.08      0.00      0.00
                                0.00  14541.08      0.00
                                0.00      0.00  14675.43

     hartree stress (kbar)   9594.38      0.00      0.00
                                0.00   9594.38     -0.00
                                0.00     -0.00  21364.16

     exc-cor stress (kbar)  -7285.80      0.00     -0.00
                                0.00  -7285.80      0.00
                               -0.00      0.00  -7260.35

     corecor stress (kbar)      0.00      0.00      0.00
                                0.00      0.00      0.00
                                0.00      0.00      0.00

     ewald   stress (kbar) -52636.21     -0.00     -0.00
                               -0.00 -52636.21     -0.00
                               -0.00     -0.00 -32007.45

     hubbard stress (kbar)      0.00      0.00      0.00
                                0.00      0.00      0.00
                                0.00      0.00      0.00

     DFT-D   stress (kbar)      0.00      0.00      0.00
                                0.00      0.00      0.00
                                0.00      0.00      0.00

     XDM     stress (kbar)      0.00      0.00      0.00
                                0.00      0.00      0.00
                                0.00      0.00      0.00

     dft-nl  stress (kbar)      0.00      0.00      0.00
                                0.00      0.00      0.00
                                0.00      0.00      0.00

     TS-vdW  stress (kbar)      0.00      0.00      0.00
                                0.00      0.00      0.00
                                0.00      0.00      0.00


                                0.00      0.00      0.00
                                0.00      0.00      0.00


                                0.00      0.00      0.00


     Writing all to output data dir tmp/espresso.save/
 
     init_run     :      3.07s CPU      1.60s WALL (       1 calls)
     electrons    :     94.75s CPU     48.50s WALL (       1 calls)
     forces       :      5.09s CPU      2.60s WALL (       1 calls)
     stress       :      7.37s CPU      3.72s WALL (       1 calls)

     Called by init_run:
     wfcinit      :      3.01s CPU      1.54s WALL (       1 calls)
     wfcinit:atom :      0.01s CPU      0.01s WALL (      30 calls)
     wfcinit:wfcr :      2.93s CPU      1.50s WALL (      30 calls)
     potinit      :      0.02s CPU      0.01s WALL (       1 calls)
     hinit0       :      0.03s CPU      0.04s WALL (       1 calls)

     Called by electrons:
     c_bands      :     86.93s CPU     44.47s WALL (       9 calls)
     sum_band     :      7.67s CPU      3.94s WALL (       9 calls)
     v_of_rho     :      0.05s CPU      0.02s WALL (      10 calls)
     v_h          :      0.00s CPU      0.00s WALL (      10 calls)
     v_xc         :      0.04s CPU      0.02s WALL (      10 calls)
     mix_rho      :      0.04s CPU      0.02s WALL (       9 calls)

     Called by c_bands:
     init_us_2    :      0.27s CPU      0.15s WALL (     630 calls)
     init_us_2:cp :      0.27s CPU      0.14s WALL (     630 calls)
     cegterg      :     80.39s CPU     41.13s WALL (     270 calls)

     Called by sum_band:
     sum_band:wei :      0.05s CPU      0.03s WALL (       9 calls)
     sum_band:loo :      7.60s CPU      3.90s WALL (       9 calls)
     sum_band:buf :      0.05s CPU      0.02s WALL (     270 calls)
     sum_band:ini :      0.08s CPU      0.04s WALL (     270 calls)

     Called by *egterg:
     cdiaghg      :     13.05s CPU      6.64s WALL (    1047 calls)
     cegterg:over :      4.92s CPU      2.50s WALL (     777 calls)
     cegterg:upda :      3.90s CPU      1.99s WALL (     777 calls)
     cegterg:last :      6.68s CPU      3.40s WALL (     540 calls)
     cdiaghg:chol :      0.60s CPU      0.31s WALL (    1047 calls)
     cdiaghg:inve :      0.09s CPU      0.05s WALL (    1047 calls)
     cdiaghg:para :      1.36s CPU      0.69s WALL (    2094 calls)
     h_psi        :     52.71s CPU     27.06s WALL (    1077 calls)
     g_psi        :      0.08s CPU      0.04s WALL (     777 calls)

     Called by h_psi:
     h_psi:calbec :      6.38s CPU      3.31s WALL (    1077 calls)
     vloc_psi     :     37.03s CPU     19.01s WALL (    1077 calls)
     add_vuspsi   :      9.19s CPU      4.68s WALL (    1077 calls)

     General routines
     calbec       :      8.07s CPU      4.19s WALL (    1227 calls)
     fft          :      0.05s CPU      0.03s WALL (     137 calls)
     ffts         :      0.01s CPU      0.01s WALL (      36 calls)
     fftw         :     41.78s CPU     21.45s WALL (  235748 calls)
 
     Parallel routines
 
     PWSCF        :   1m53.84s CPU     59.33s WALL

 
   This run was terminated on:   9:46: 2  10Apr2022            

=------------------------------------------------------------------------------=
   JOB DONE.
=------------------------------------------------------------------------------=
