
     Program PWSCF v.7.0 starts on 10Apr2022 at 11: 5: 6 

     This program is part of the open-source Quantum ESPRESSO suite
     for quantum simulation of materials; please cite
         "P. Giannozzi et al., J. Phys.:Condens. Matter 21 395502 (2009);
         "P. Giannozzi et al., J. Phys.:Condens. Matter 29 465901 (2017);
         "P. Giannozzi et al., J. Chem. Phys. 152 154105 (2020);
          URL http://www.quantum-espresso.org", 
     in publications or presentations arising from this work. More details at
     http://www.quantum-espresso.org/quote

     Parallel version (MPI & OpenMP), running on      64 processor cores
     Number of MPI processes:                32
     Threads/MPI process:                     2

     MPI processes distributed on     1 nodes
     R & G space division:  proc/nbgrp/npool/nimage =      32
     230638 MiB available memory on the printing compute node when the environment starts
 
     Reading input from kpoints_10108.pwi
Warning: card &CELL ignored
Warning: card / ignored

     Current dimensions of program PWSCF are:
     Max number of different atomic species (ntypx) = 10
     Max number of k-points (npk) =  40000
     Max angular momentum in pseudopotentials (lmaxx) =  4

     Subspace diagonalization in iterative solution of the eigenvalue problem:
     one sub-group per band group will be used
     scalapack distributed-memory algorithm (size of sub-group:  5*  5 procs)

 
     Parallelization info
     --------------------
     sticks:   dense  smooth     PW     G-vecs:    dense   smooth      PW
     Min          58      58     17                 1342     1342     211
     Max          59      59     18                 1345     1345     214
     Sum        1885    1885    553                42999    42999    6811
 
     Using Slab Decomposition
 

     Title: 
     IrO2 Unit Cell                                                             


     bravais-lattice index     =            6
     lattice parameter (alat)  =       8.5888  a.u.
     unit-cell volume          =     444.6868 (a.u.)^3
     number of atoms/cell      =            6
     number of atomic types    =            2
     number of electrons       =        58.00
     number of Kohn-Sham states=           70
     kinetic-energy cutoff     =      80.0000  Ry
     charge density cutoff     =     320.0000  Ry
     scf convergence threshold =      1.0E-09
     mixing beta               =       0.7000
     number of iterations used =            8  plain     mixing
     Exchange-correlation= PBE
                           (   1   4   3   4   0   0   0)
     Non magnetic calculation with spin-orbit


     celldm(1)=   8.588800  celldm(2)=   0.000000  celldm(3)=   0.701870
     celldm(4)=   0.000000  celldm(5)=   0.000000  celldm(6)=   0.000000

     crystal axes: (cart. coord. in units of alat)
               a(1) = (   1.000000   0.000000   0.000000 )  
               a(2) = (   0.000000   1.000000   0.000000 )  
               a(3) = (   0.000000   0.000000   0.701870 )  

     reciprocal axes: (cart. coord. in units 2 pi/alat)
               b(1) = (  1.000000  0.000000  0.000000 )  
               b(2) = (  0.000000  1.000000  0.000000 )  
               b(3) = (  0.000000  0.000000  1.424765 )  


     PseudoPot. # 1 for O  read from file:
     ../../XX_PSEUDO/O_ONCV_PBE_fr.upf
     MD5 check sum: 59c925217d3b58c6d762355590b68b09
     Pseudo is Norm-conserving, Zval =  6.0
     Generated using ONCVPSP code by D. R. Hamann
     Using radial grid of  936 points,  6 beta functions with: 
                l(1) =   0
                l(2) =   0
                l(3) =   1
                l(4) =   1
                l(5) =   1
                l(6) =   1

     PseudoPot. # 2 for Ir read from file:
     ../../XX_PSEUDO/Ir_ONCV_PBE_fr.upf
     MD5 check sum: 924e909c4146afa09f62ee3401806954
     Pseudo is Norm-conserving, Zval = 17.0
     Generated using ONCVPSP code by D. R. Hamann
     Using radial grid of 1310 points, 14 beta functions with: 
                l(1) =   0
                l(2) =   0
                l(3) =   1
                l(4) =   1
                l(5) =   1
                l(6) =   1
                l(7) =   2
                l(8) =   2
                l(9) =   2
               l(10) =   2
               l(11) =   3
               l(12) =   3
               l(13) =   3
               l(14) =   3

     atomic species   valence    mass     pseudopotential
        O              6.00    15.99900     O ( 1.00)
        Ir            17.00   192.21700     Ir( 1.00)

     16 Sym. Ops., with inversion, found ( 8 have fractional translation)


                                    s                        frac. trans.

      isym =  1     identity                                     

 cryst.   s( 1) = (     1          0          0      )
                  (     0          1          0      )
                  (     0          0          1      )

 cart.    s( 1) = (  1.0000000  0.0000000  0.0000000 )
                  (  0.0000000  1.0000000  0.0000000 )
                  (  0.0000000  0.0000000  1.0000000 )


      isym =  2     180 deg rotation - cart. axis [0,0,1]        

 cryst.   s( 2) = (    -1          0          0      )
                  (     0         -1          0      )
                  (     0          0          1      )

 cart.    s( 2) = ( -1.0000000  0.0000000  0.0000000 )
                  (  0.0000000 -1.0000000  0.0000000 )
                  (  0.0000000  0.0000000  1.0000000 )


      isym =  3     180 deg rotation - cart. axis [0,1,0]        

 cryst.   s( 3) = (    -1          0          0      )    f =(  0.5000000 )
                  (     0          1          0      )       ( -0.5000000 )
                  (     0          0         -1      )       (  0.5000000 )

 cart.    s( 3) = ( -1.0000000  0.0000000  0.0000000 )    f =(  0.5000000 )
                  (  0.0000000  1.0000000  0.0000000 )       ( -0.5000000 )
                  (  0.0000000  0.0000000 -1.0000000 )       (  0.3509351 )


      isym =  4     180 deg rotation - cart. axis [1,0,0]        

 cryst.   s( 4) = (     1          0          0      )    f =( -0.5000000 )
                  (     0         -1          0      )       (  0.5000000 )
                  (     0          0         -1      )       (  0.5000000 )

 cart.    s( 4) = (  1.0000000  0.0000000  0.0000000 )    f =( -0.5000000 )
                  (  0.0000000 -1.0000000  0.0000000 )       (  0.5000000 )
                  (  0.0000000  0.0000000 -1.0000000 )       (  0.3509351 )


      isym =  5     180 deg rotation - cart. axis [1,1,0]        

 cryst.   s( 5) = (     0          1          0      )
                  (     1          0          0      )
                  (     0          0         -1      )

 cart.    s( 5) = (  0.0000000  1.0000000  0.0000000 )
                  (  1.0000000  0.0000000  0.0000000 )
                  (  0.0000000  0.0000000 -1.0000000 )


      isym =  6     180 deg rotation - cart. axis [1,-1,0]       

 cryst.   s( 6) = (     0         -1          0      )
                  (    -1          0          0      )
                  (     0          0         -1      )

 cart.    s( 6) = (  0.0000000 -1.0000000  0.0000000 )
                  ( -1.0000000  0.0000000  0.0000000 )
                  (  0.0000000  0.0000000 -1.0000000 )


      isym =  7      90 deg rotation - cart. axis [0,0,-1]       

 cryst.   s( 7) = (     0         -1          0      )    f =( -0.5000000 )
                  (     1          0          0      )       (  0.5000000 )
                  (     0          0          1      )       ( -0.5000000 )

 cart.    s( 7) = (  0.0000000  1.0000000  0.0000000 )    f =( -0.5000000 )
                  ( -1.0000000  0.0000000  0.0000000 )       (  0.5000000 )
                  (  0.0000000  0.0000000  1.0000000 )       ( -0.3509351 )


      isym =  8      90 deg rotation - cart. axis [0,0,1]        

 cryst.   s( 8) = (     0          1          0      )    f =(  0.5000000 )
                  (    -1          0          0      )       ( -0.5000000 )
                  (     0          0          1      )       ( -0.5000000 )

 cart.    s( 8) = (  0.0000000 -1.0000000  0.0000000 )    f =(  0.5000000 )
                  (  1.0000000  0.0000000  0.0000000 )       ( -0.5000000 )
                  (  0.0000000  0.0000000  1.0000000 )       ( -0.3509351 )


      isym =  9     inversion                                    

 cryst.   s( 9) = (    -1          0          0      )
                  (     0         -1          0      )
                  (     0          0         -1      )

 cart.    s( 9) = ( -1.0000000  0.0000000  0.0000000 )
                  (  0.0000000 -1.0000000  0.0000000 )
                  (  0.0000000  0.0000000 -1.0000000 )


      isym = 10     inv. 180 deg rotation - cart. axis [0,0,1]   

 cryst.   s(10) = (     1          0          0      )
                  (     0          1          0      )
                  (     0          0         -1      )

 cart.    s(10) = (  1.0000000  0.0000000  0.0000000 )
                  (  0.0000000  1.0000000  0.0000000 )
                  (  0.0000000  0.0000000 -1.0000000 )


      isym = 11     inv. 180 deg rotation - cart. axis [0,1,0]   

 cryst.   s(11) = (     1          0          0      )    f =( -0.5000000 )
                  (     0         -1          0      )       (  0.5000000 )
                  (     0          0          1      )       ( -0.5000000 )

 cart.    s(11) = (  1.0000000  0.0000000  0.0000000 )    f =( -0.5000000 )
                  (  0.0000000 -1.0000000  0.0000000 )       (  0.5000000 )
                  (  0.0000000  0.0000000  1.0000000 )       ( -0.3509351 )


      isym = 12     inv. 180 deg rotation - cart. axis [1,0,0]   

 cryst.   s(12) = (    -1          0          0      )    f =(  0.5000000 )
                  (     0          1          0      )       ( -0.5000000 )
                  (     0          0          1      )       ( -0.5000000 )

 cart.    s(12) = ( -1.0000000  0.0000000  0.0000000 )    f =(  0.5000000 )
                  (  0.0000000  1.0000000  0.0000000 )       ( -0.5000000 )
                  (  0.0000000  0.0000000  1.0000000 )       ( -0.3509351 )


      isym = 13     inv. 180 deg rotation - cart. axis [1,1,0]   

 cryst.   s(13) = (     0         -1          0      )
                  (    -1          0          0      )
                  (     0          0          1      )

 cart.    s(13) = (  0.0000000 -1.0000000  0.0000000 )
                  ( -1.0000000  0.0000000  0.0000000 )
                  (  0.0000000  0.0000000  1.0000000 )


      isym = 14     inv. 180 deg rotation - cart. axis [1,-1,0]  

 cryst.   s(14) = (     0          1          0      )
                  (     1          0          0      )
                  (     0          0          1      )

 cart.    s(14) = (  0.0000000  1.0000000  0.0000000 )
                  (  1.0000000  0.0000000  0.0000000 )
                  (  0.0000000  0.0000000  1.0000000 )


      isym = 15     inv.  90 deg rotation - cart. axis [0,0,-1]  

 cryst.   s(15) = (     0          1          0      )    f =(  0.5000000 )
                  (    -1          0          0      )       ( -0.5000000 )
                  (     0          0         -1      )       (  0.5000000 )

 cart.    s(15) = (  0.0000000 -1.0000000  0.0000000 )    f =(  0.5000000 )
                  (  1.0000000  0.0000000  0.0000000 )       ( -0.5000000 )
                  (  0.0000000  0.0000000 -1.0000000 )       (  0.3509351 )


      isym = 16     inv.  90 deg rotation - cart. axis [0,0,1]   

 cryst.   s(16) = (     0         -1          0      )    f =( -0.5000000 )
                  (     1          0          0      )       (  0.5000000 )
                  (     0          0         -1      )       (  0.5000000 )

 cart.    s(16) = (  0.0000000  1.0000000  0.0000000 )    f =( -0.5000000 )
                  ( -1.0000000  0.0000000  0.0000000 )       (  0.5000000 )
                  (  0.0000000  0.0000000 -1.0000000 )       (  0.3509351 )


     double point group D_4h(4/mmm)
     there are 14 classes and  4 irreducible representations
     the character table:

       E     -E    2C4   -2C4   C2    2C2' 2C2'' i     -i    2S4   -2S4   s_h 
                               -C2   -2C2' -2C2'                         -s_h 
G_6+   2.00 -2.00  1.41 -1.41  0.00  0.00  0.00  2.00 -2.00  1.41 -1.41  0.00
G_7+   2.00 -2.00 -1.41  1.41  0.00  0.00  0.00  2.00 -2.00 -1.41  1.41  0.00
G_6-   2.00 -2.00  1.41 -1.41  0.00  0.00  0.00 -2.00  2.00 -1.41  1.41  0.00
G_7-   2.00 -2.00 -1.41  1.41  0.00  0.00  0.00 -2.00  2.00  1.41 -1.41  0.00

        2s_v  2s_d
       -2s_v -2s_d
G_6+   0.00  0.00
G_7+   0.00  0.00
G_6-   0.00  0.00
G_7-   0.00  0.00

     the symmetry operations in each class and the name of the first element:

     E             1
          identity                                               
     -E           -1
          identity E                                             
     2C4           7    8
           90 deg rotation - cart. axis [0,0,-1]                 
     -2C4         -7   -8
           90 deg rotation - cart. axis [0,0,-1] E               
      C2  -C2      2   -2
          180 deg rotation - cart. axis [0,0,1]                  
      2C2'-2C2'    3   -3    4   -4
          180 deg rotation - cart. axis [0,1,0]                  
     2C2''-2C2'    5   -5   -6    6
          180 deg rotation - cart. axis [1,1,0]                  
     i             9
          inversion                                              
     -i           -9
          inversion E                                            
     2S4          15   16
          inv.  90 deg rotation - cart. axis [0,0,-1]            
     -2S4        -15  -16
          inv.  90 deg rotation - cart. axis [0,0,-1] E          
      s_h -s_h    10  -10
          inv. 180 deg rotation - cart. axis [0,0,1]             
      2s_v-2s_v   11  -11   12  -12
          inv. 180 deg rotation - cart. axis [0,1,0]             
      2s_d-2s_d   13  -13  -14   14
          inv. 180 deg rotation - cart. axis [1,1,0]             

   Cartesian axes

     site n.     atom                  positions (alat units)
         1           Ir  tau(   1) = (   0.0000000   0.0000000   0.0000000  )
         2           Ir  tau(   2) = (   0.5000000   0.5000000   0.3509351  )
         3           O   tau(   3) = (   0.1916000   0.8084000   0.3509351  )
         4           O   tau(   4) = (   0.3084000   0.3084000   0.0000000  )
         5           O   tau(   5) = (   0.6916000   0.6916000   0.0000000  )
         6           O   tau(   6) = (   0.8084000   0.1916000   0.3509351  )

   Crystallographic axes

     site n.     atom                  positions (cryst. coord.)
         1           Ir  tau(   1) = (  0.0000000  0.0000000  0.0000000  )
         2           Ir  tau(   2) = (  0.5000000  0.5000000  0.5000000  )
         3           O   tau(   3) = (  0.1916000  0.8084000  0.5000000  )
         4           O   tau(   4) = (  0.3084000  0.3084000  0.0000000  )
         5           O   tau(   5) = (  0.6916000  0.6916000  0.0000000  )
         6           O   tau(   6) = (  0.8084000  0.1916000  0.5000000  )

     number of k points=   105  Methfessel-Paxton smearing, width (Ry)=  0.0050
                       cart. coord. in units 2pi/alat
        k(    1) = (   0.0000000   0.0000000   0.0000000), wk =   0.0012500
        k(    2) = (   0.0000000   0.0000000   0.1780956), wk =   0.0025000
        k(    3) = (   0.0000000   0.0000000   0.3561912), wk =   0.0025000
        k(    4) = (   0.0000000   0.0000000   0.5342868), wk =   0.0025000
        k(    5) = (   0.0000000   0.0000000  -0.7123824), wk =   0.0012500
        k(    6) = (   0.0000000   0.1000000   0.0000000), wk =   0.0050000
        k(    7) = (   0.0000000   0.1000000   0.1780956), wk =   0.0100000
        k(    8) = (   0.0000000   0.1000000   0.3561912), wk =   0.0100000
        k(    9) = (   0.0000000   0.1000000   0.5342868), wk =   0.0100000
        k(   10) = (   0.0000000   0.1000000  -0.7123824), wk =   0.0050000
        k(   11) = (   0.0000000   0.2000000   0.0000000), wk =   0.0050000
        k(   12) = (   0.0000000   0.2000000   0.1780956), wk =   0.0100000
        k(   13) = (   0.0000000   0.2000000   0.3561912), wk =   0.0100000
        k(   14) = (   0.0000000   0.2000000   0.5342868), wk =   0.0100000
        k(   15) = (   0.0000000   0.2000000  -0.7123824), wk =   0.0050000
        k(   16) = (   0.0000000   0.3000000   0.0000000), wk =   0.0050000
        k(   17) = (   0.0000000   0.3000000   0.1780956), wk =   0.0100000
        k(   18) = (   0.0000000   0.3000000   0.3561912), wk =   0.0100000
        k(   19) = (   0.0000000   0.3000000   0.5342868), wk =   0.0100000
        k(   20) = (   0.0000000   0.3000000  -0.7123824), wk =   0.0050000
        k(   21) = (   0.0000000   0.4000000   0.0000000), wk =   0.0050000
        k(   22) = (   0.0000000   0.4000000   0.1780956), wk =   0.0100000
        k(   23) = (   0.0000000   0.4000000   0.3561912), wk =   0.0100000
        k(   24) = (   0.0000000   0.4000000   0.5342868), wk =   0.0100000
        k(   25) = (   0.0000000   0.4000000  -0.7123824), wk =   0.0050000
        k(   26) = (   0.0000000  -0.5000000   0.0000000), wk =   0.0025000
        k(   27) = (   0.0000000  -0.5000000   0.1780956), wk =   0.0050000
        k(   28) = (   0.0000000  -0.5000000   0.3561912), wk =   0.0050000
        k(   29) = (   0.0000000  -0.5000000   0.5342868), wk =   0.0050000
        k(   30) = (   0.0000000  -0.5000000  -0.7123824), wk =   0.0025000
        k(   31) = (   0.1000000   0.1000000   0.0000000), wk =   0.0050000
        k(   32) = (   0.1000000   0.1000000   0.1780956), wk =   0.0100000
        k(   33) = (   0.1000000   0.1000000   0.3561912), wk =   0.0100000
        k(   34) = (   0.1000000   0.1000000   0.5342868), wk =   0.0100000
        k(   35) = (   0.1000000   0.1000000  -0.7123824), wk =   0.0050000
        k(   36) = (   0.1000000   0.2000000   0.0000000), wk =   0.0100000
        k(   37) = (   0.1000000   0.2000000   0.1780956), wk =   0.0200000
        k(   38) = (   0.1000000   0.2000000   0.3561912), wk =   0.0200000
        k(   39) = (   0.1000000   0.2000000   0.5342868), wk =   0.0200000
        k(   40) = (   0.1000000   0.2000000  -0.7123824), wk =   0.0100000
        k(   41) = (   0.1000000   0.3000000   0.0000000), wk =   0.0100000
        k(   42) = (   0.1000000   0.3000000   0.1780956), wk =   0.0200000
        k(   43) = (   0.1000000   0.3000000   0.3561912), wk =   0.0200000
        k(   44) = (   0.1000000   0.3000000   0.5342868), wk =   0.0200000
        k(   45) = (   0.1000000   0.3000000  -0.7123824), wk =   0.0100000
        k(   46) = (   0.1000000   0.4000000   0.0000000), wk =   0.0100000
        k(   47) = (   0.1000000   0.4000000   0.1780956), wk =   0.0200000
        k(   48) = (   0.1000000   0.4000000   0.3561912), wk =   0.0200000
        k(   49) = (   0.1000000   0.4000000   0.5342868), wk =   0.0200000
        k(   50) = (   0.1000000   0.4000000  -0.7123824), wk =   0.0100000
        k(   51) = (   0.1000000  -0.5000000   0.0000000), wk =   0.0050000
        k(   52) = (   0.1000000  -0.5000000   0.1780956), wk =   0.0100000
        k(   53) = (   0.1000000  -0.5000000   0.3561912), wk =   0.0100000
        k(   54) = (   0.1000000  -0.5000000   0.5342868), wk =   0.0100000
        k(   55) = (   0.1000000  -0.5000000  -0.7123824), wk =   0.0050000
        k(   56) = (   0.2000000   0.2000000   0.0000000), wk =   0.0050000
        k(   57) = (   0.2000000   0.2000000   0.1780956), wk =   0.0100000
        k(   58) = (   0.2000000   0.2000000   0.3561912), wk =   0.0100000
        k(   59) = (   0.2000000   0.2000000   0.5342868), wk =   0.0100000
        k(   60) = (   0.2000000   0.2000000  -0.7123824), wk =   0.0050000
        k(   61) = (   0.2000000   0.3000000   0.0000000), wk =   0.0100000
        k(   62) = (   0.2000000   0.3000000   0.1780956), wk =   0.0200000
        k(   63) = (   0.2000000   0.3000000   0.3561912), wk =   0.0200000
        k(   64) = (   0.2000000   0.3000000   0.5342868), wk =   0.0200000
        k(   65) = (   0.2000000   0.3000000  -0.7123824), wk =   0.0100000
        k(   66) = (   0.2000000   0.4000000   0.0000000), wk =   0.0100000
        k(   67) = (   0.2000000   0.4000000   0.1780956), wk =   0.0200000
        k(   68) = (   0.2000000   0.4000000   0.3561912), wk =   0.0200000
        k(   69) = (   0.2000000   0.4000000   0.5342868), wk =   0.0200000
        k(   70) = (   0.2000000   0.4000000  -0.7123824), wk =   0.0100000
        k(   71) = (   0.2000000  -0.5000000   0.0000000), wk =   0.0050000
        k(   72) = (   0.2000000  -0.5000000   0.1780956), wk =   0.0100000
        k(   73) = (   0.2000000  -0.5000000   0.3561912), wk =   0.0100000
        k(   74) = (   0.2000000  -0.5000000   0.5342868), wk =   0.0100000
        k(   75) = (   0.2000000  -0.5000000  -0.7123824), wk =   0.0050000
        k(   76) = (   0.3000000   0.3000000   0.0000000), wk =   0.0050000
        k(   77) = (   0.3000000   0.3000000   0.1780956), wk =   0.0100000
        k(   78) = (   0.3000000   0.3000000   0.3561912), wk =   0.0100000
        k(   79) = (   0.3000000   0.3000000   0.5342868), wk =   0.0100000
        k(   80) = (   0.3000000   0.3000000  -0.7123824), wk =   0.0050000
        k(   81) = (   0.3000000   0.4000000   0.0000000), wk =   0.0100000
        k(   82) = (   0.3000000   0.4000000   0.1780956), wk =   0.0200000
        k(   83) = (   0.3000000   0.4000000   0.3561912), wk =   0.0200000
        k(   84) = (   0.3000000   0.4000000   0.5342868), wk =   0.0200000
        k(   85) = (   0.3000000   0.4000000  -0.7123824), wk =   0.0100000
        k(   86) = (   0.3000000  -0.5000000   0.0000000), wk =   0.0050000
        k(   87) = (   0.3000000  -0.5000000   0.1780956), wk =   0.0100000
        k(   88) = (   0.3000000  -0.5000000   0.3561912), wk =   0.0100000
        k(   89) = (   0.3000000  -0.5000000   0.5342868), wk =   0.0100000
        k(   90) = (   0.3000000  -0.5000000  -0.7123824), wk =   0.0050000
        k(   91) = (   0.4000000   0.4000000   0.0000000), wk =   0.0050000
        k(   92) = (   0.4000000   0.4000000   0.1780956), wk =   0.0100000
        k(   93) = (   0.4000000   0.4000000   0.3561912), wk =   0.0100000
        k(   94) = (   0.4000000   0.4000000   0.5342868), wk =   0.0100000
        k(   95) = (   0.4000000   0.4000000  -0.7123824), wk =   0.0050000
        k(   96) = (   0.4000000  -0.5000000   0.0000000), wk =   0.0050000
        k(   97) = (   0.4000000  -0.5000000   0.1780956), wk =   0.0100000
        k(   98) = (   0.4000000  -0.5000000   0.3561912), wk =   0.0100000
        k(   99) = (   0.4000000  -0.5000000   0.5342868), wk =   0.0100000
        k(  100) = (   0.4000000  -0.5000000  -0.7123824), wk =   0.0050000
        k(  101) = (  -0.5000000  -0.5000000   0.0000000), wk =   0.0012500
        k(  102) = (  -0.5000000  -0.5000000   0.1780956), wk =   0.0025000
        k(  103) = (  -0.5000000  -0.5000000   0.3561912), wk =   0.0025000
        k(  104) = (  -0.5000000  -0.5000000   0.5342868), wk =   0.0025000
        k(  105) = (  -0.5000000  -0.5000000  -0.7123824), wk =   0.0012500

                       cryst. coord.
        k(    1) = (   0.0000000   0.0000000   0.0000000), wk =   0.0012500
        k(    2) = (   0.0000000   0.0000000   0.1250000), wk =   0.0025000
        k(    3) = (   0.0000000   0.0000000   0.2500000), wk =   0.0025000
        k(    4) = (   0.0000000   0.0000000   0.3750000), wk =   0.0025000
        k(    5) = (   0.0000000   0.0000000  -0.5000000), wk =   0.0012500
        k(    6) = (   0.0000000   0.1000000   0.0000000), wk =   0.0050000
        k(    7) = (   0.0000000   0.1000000   0.1250000), wk =   0.0100000
        k(    8) = (   0.0000000   0.1000000   0.2500000), wk =   0.0100000
        k(    9) = (   0.0000000   0.1000000   0.3750000), wk =   0.0100000
        k(   10) = (   0.0000000   0.1000000  -0.5000000), wk =   0.0050000
        k(   11) = (   0.0000000   0.2000000   0.0000000), wk =   0.0050000
        k(   12) = (   0.0000000   0.2000000   0.1250000), wk =   0.0100000
        k(   13) = (   0.0000000   0.2000000   0.2500000), wk =   0.0100000
        k(   14) = (   0.0000000   0.2000000   0.3750000), wk =   0.0100000
        k(   15) = (   0.0000000   0.2000000  -0.5000000), wk =   0.0050000
        k(   16) = (   0.0000000   0.3000000   0.0000000), wk =   0.0050000
        k(   17) = (   0.0000000   0.3000000   0.1250000), wk =   0.0100000
        k(   18) = (   0.0000000   0.3000000   0.2500000), wk =   0.0100000
        k(   19) = (   0.0000000   0.3000000   0.3750000), wk =   0.0100000
        k(   20) = (   0.0000000   0.3000000  -0.5000000), wk =   0.0050000
        k(   21) = (   0.0000000   0.4000000   0.0000000), wk =   0.0050000
        k(   22) = (   0.0000000   0.4000000   0.1250000), wk =   0.0100000
        k(   23) = (   0.0000000   0.4000000   0.2500000), wk =   0.0100000
        k(   24) = (   0.0000000   0.4000000   0.3750000), wk =   0.0100000
        k(   25) = (   0.0000000   0.4000000  -0.5000000), wk =   0.0050000
        k(   26) = (   0.0000000  -0.5000000   0.0000000), wk =   0.0025000
        k(   27) = (   0.0000000  -0.5000000   0.1250000), wk =   0.0050000
        k(   28) = (   0.0000000  -0.5000000   0.2500000), wk =   0.0050000
        k(   29) = (   0.0000000  -0.5000000   0.3750000), wk =   0.0050000
        k(   30) = (   0.0000000  -0.5000000  -0.5000000), wk =   0.0025000
        k(   31) = (   0.1000000   0.1000000   0.0000000), wk =   0.0050000
        k(   32) = (   0.1000000   0.1000000   0.1250000), wk =   0.0100000
        k(   33) = (   0.1000000   0.1000000   0.2500000), wk =   0.0100000
        k(   34) = (   0.1000000   0.1000000   0.3750000), wk =   0.0100000
        k(   35) = (   0.1000000   0.1000000  -0.5000000), wk =   0.0050000
        k(   36) = (   0.1000000   0.2000000   0.0000000), wk =   0.0100000
        k(   37) = (   0.1000000   0.2000000   0.1250000), wk =   0.0200000
        k(   38) = (   0.1000000   0.2000000   0.2500000), wk =   0.0200000
        k(   39) = (   0.1000000   0.2000000   0.3750000), wk =   0.0200000
        k(   40) = (   0.1000000   0.2000000  -0.5000000), wk =   0.0100000
        k(   41) = (   0.1000000   0.3000000   0.0000000), wk =   0.0100000
        k(   42) = (   0.1000000   0.3000000   0.1250000), wk =   0.0200000
        k(   43) = (   0.1000000   0.3000000   0.2500000), wk =   0.0200000
        k(   44) = (   0.1000000   0.3000000   0.3750000), wk =   0.0200000
        k(   45) = (   0.1000000   0.3000000  -0.5000000), wk =   0.0100000
        k(   46) = (   0.1000000   0.4000000   0.0000000), wk =   0.0100000
        k(   47) = (   0.1000000   0.4000000   0.1250000), wk =   0.0200000
        k(   48) = (   0.1000000   0.4000000   0.2500000), wk =   0.0200000
        k(   49) = (   0.1000000   0.4000000   0.3750000), wk =   0.0200000
        k(   50) = (   0.1000000   0.4000000  -0.5000000), wk =   0.0100000
        k(   51) = (   0.1000000  -0.5000000   0.0000000), wk =   0.0050000
        k(   52) = (   0.1000000  -0.5000000   0.1250000), wk =   0.0100000
        k(   53) = (   0.1000000  -0.5000000   0.2500000), wk =   0.0100000
        k(   54) = (   0.1000000  -0.5000000   0.3750000), wk =   0.0100000
        k(   55) = (   0.1000000  -0.5000000  -0.5000000), wk =   0.0050000
        k(   56) = (   0.2000000   0.2000000   0.0000000), wk =   0.0050000
        k(   57) = (   0.2000000   0.2000000   0.1250000), wk =   0.0100000
        k(   58) = (   0.2000000   0.2000000   0.2500000), wk =   0.0100000
        k(   59) = (   0.2000000   0.2000000   0.3750000), wk =   0.0100000
        k(   60) = (   0.2000000   0.2000000  -0.5000000), wk =   0.0050000
        k(   61) = (   0.2000000   0.3000000   0.0000000), wk =   0.0100000
        k(   62) = (   0.2000000   0.3000000   0.1250000), wk =   0.0200000
        k(   63) = (   0.2000000   0.3000000   0.2500000), wk =   0.0200000
        k(   64) = (   0.2000000   0.3000000   0.3750000), wk =   0.0200000
        k(   65) = (   0.2000000   0.3000000  -0.5000000), wk =   0.0100000
        k(   66) = (   0.2000000   0.4000000   0.0000000), wk =   0.0100000
        k(   67) = (   0.2000000   0.4000000   0.1250000), wk =   0.0200000
        k(   68) = (   0.2000000   0.4000000   0.2500000), wk =   0.0200000
        k(   69) = (   0.2000000   0.4000000   0.3750000), wk =   0.0200000
        k(   70) = (   0.2000000   0.4000000  -0.5000000), wk =   0.0100000
        k(   71) = (   0.2000000  -0.5000000   0.0000000), wk =   0.0050000
        k(   72) = (   0.2000000  -0.5000000   0.1250000), wk =   0.0100000
        k(   73) = (   0.2000000  -0.5000000   0.2500000), wk =   0.0100000
        k(   74) = (   0.2000000  -0.5000000   0.3750000), wk =   0.0100000
        k(   75) = (   0.2000000  -0.5000000  -0.5000000), wk =   0.0050000
        k(   76) = (   0.3000000   0.3000000   0.0000000), wk =   0.0050000
        k(   77) = (   0.3000000   0.3000000   0.1250000), wk =   0.0100000
        k(   78) = (   0.3000000   0.3000000   0.2500000), wk =   0.0100000
        k(   79) = (   0.3000000   0.3000000   0.3750000), wk =   0.0100000
        k(   80) = (   0.3000000   0.3000000  -0.5000000), wk =   0.0050000
        k(   81) = (   0.3000000   0.4000000   0.0000000), wk =   0.0100000
        k(   82) = (   0.3000000   0.4000000   0.1250000), wk =   0.0200000
        k(   83) = (   0.3000000   0.4000000   0.2500000), wk =   0.0200000
        k(   84) = (   0.3000000   0.4000000   0.3750000), wk =   0.0200000
        k(   85) = (   0.3000000   0.4000000  -0.5000000), wk =   0.0100000
        k(   86) = (   0.3000000  -0.5000000   0.0000000), wk =   0.0050000
        k(   87) = (   0.3000000  -0.5000000   0.1250000), wk =   0.0100000
        k(   88) = (   0.3000000  -0.5000000   0.2500000), wk =   0.0100000
        k(   89) = (   0.3000000  -0.5000000   0.3750000), wk =   0.0100000
        k(   90) = (   0.3000000  -0.5000000  -0.5000000), wk =   0.0050000
        k(   91) = (   0.4000000   0.4000000   0.0000000), wk =   0.0050000
        k(   92) = (   0.4000000   0.4000000   0.1250000), wk =   0.0100000
        k(   93) = (   0.4000000   0.4000000   0.2500000), wk =   0.0100000
        k(   94) = (   0.4000000   0.4000000   0.3750000), wk =   0.0100000
        k(   95) = (   0.4000000   0.4000000  -0.5000000), wk =   0.0050000
        k(   96) = (   0.4000000  -0.5000000   0.0000000), wk =   0.0050000
        k(   97) = (   0.4000000  -0.5000000   0.1250000), wk =   0.0100000
        k(   98) = (   0.4000000  -0.5000000   0.2500000), wk =   0.0100000
        k(   99) = (   0.4000000  -0.5000000   0.3750000), wk =   0.0100000
        k(  100) = (   0.4000000  -0.5000000  -0.5000000), wk =   0.0050000
        k(  101) = (  -0.5000000  -0.5000000   0.0000000), wk =   0.0012500
        k(  102) = (  -0.5000000  -0.5000000   0.1250000), wk =   0.0025000
        k(  103) = (  -0.5000000  -0.5000000   0.2500000), wk =   0.0025000
        k(  104) = (  -0.5000000  -0.5000000   0.3750000), wk =   0.0025000
        k(  105) = (  -0.5000000  -0.5000000  -0.5000000), wk =   0.0012500

     Dense  grid:    42999 G-vectors     FFT dimensions: (  50,  50,  36)

     Dynamical RAM for                 wfc:       0.36 MB

     Dynamical RAM for     wfc (w. buffer):      37.82 MB

     Dynamical RAM for           str. fact:       0.04 MB

     Dynamical RAM for           local pot:       0.00 MB

     Dynamical RAM for          nlocal pot:       0.46 MB

     Dynamical RAM for                qrad:      20.10 MB

     Dynamical RAM for          rho,v,vnew:       0.70 MB

     Dynamical RAM for               rhoin:       0.23 MB

     Dynamical RAM for            rho*nmix:       1.31 MB

     Dynamical RAM for           G-vectors:       0.09 MB

     Dynamical RAM for          h,s,v(r/c):       0.04 MB

     Dynamical RAM for          <psi|beta>:       0.38 MB

     Dynamical RAM for                 psi:       0.71 MB

     Dynamical RAM for                hpsi:       0.71 MB

     Dynamical RAM for      wfcinit/wfcrot:       0.67 MB

     Estimated static dynamical RAM per process >      59.81 MB

     Estimated max dynamical RAM per process >      62.97 MB

     Estimated total dynamical RAM >       1.97 GB

     Initial potential from superposition of free atoms

     starting charge      57.9997, renormalised to      58.0000
     Starting wfcs are   72 randomized atomic wfcs

     total cpu time spent up to now is        5.5 secs

     Self-consistent Calculation

     iteration #  1     ecut=    80.00 Ry     beta= 0.70
     Davidson diagonalization with overlap

---- Real-time Memory Report at c_bands before calling an iterative solver
           116 MiB given to the printing process from OS
             0 MiB allocation reported by mallinfo(arena+hblkhd)
        228056 MiB available memory on the node where the printing process lives
------------------
     ethr =  1.00E-02,  avg # of iterations =  2.8

     total cpu time spent up to now is       23.8 secs

     total energy              =    -552.42656238 Ry
     estimated scf accuracy    <       1.21481188 Ry

     iteration #  2     ecut=    80.00 Ry     beta= 0.70
     Davidson diagonalization with overlap

---- Real-time Memory Report at c_bands before calling an iterative solver
           125 MiB given to the printing process from OS
             0 MiB allocation reported by mallinfo(arena+hblkhd)
        227889 MiB available memory on the node where the printing process lives
------------------
     ethr =  2.09E-03,  avg # of iterations =  2.1

     total cpu time spent up to now is       43.6 secs

     total energy              =    -552.27871138 Ry
     estimated scf accuracy    <       4.29313981 Ry

     iteration #  3     ecut=    80.00 Ry     beta= 0.70
     Davidson diagonalization with overlap

---- Real-time Memory Report at c_bands before calling an iterative solver
           126 MiB given to the printing process from OS
             0 MiB allocation reported by mallinfo(arena+hblkhd)
        227862 MiB available memory on the node where the printing process lives
------------------
     ethr =  2.09E-03,  avg # of iterations =  2.0

     total cpu time spent up to now is       62.2 secs

     total energy              =    -553.07583209 Ry
     estimated scf accuracy    <       0.03369655 Ry

     iteration #  4     ecut=    80.00 Ry     beta= 0.70
     Davidson diagonalization with overlap

---- Real-time Memory Report at c_bands before calling an iterative solver
           128 MiB given to the printing process from OS
             0 MiB allocation reported by mallinfo(arena+hblkhd)
        227844 MiB available memory on the node where the printing process lives
------------------
     ethr =  5.81E-05,  avg # of iterations =  3.0

     total cpu time spent up to now is       81.5 secs

     total energy              =    -553.07942281 Ry
     estimated scf accuracy    <       0.00487439 Ry

     iteration #  5     ecut=    80.00 Ry     beta= 0.70
     Davidson diagonalization with overlap

---- Real-time Memory Report at c_bands before calling an iterative solver
           130 MiB given to the printing process from OS
             0 MiB allocation reported by mallinfo(arena+hblkhd)
        227832 MiB available memory on the node where the printing process lives
------------------
     ethr =  8.40E-06,  avg # of iterations =  3.0

     total cpu time spent up to now is       98.5 secs

     total energy              =    -553.08026705 Ry
     estimated scf accuracy    <       0.00024235 Ry

     iteration #  6     ecut=    80.00 Ry     beta= 0.70
     Davidson diagonalization with overlap

---- Real-time Memory Report at c_bands before calling an iterative solver
           131 MiB given to the printing process from OS
             0 MiB allocation reported by mallinfo(arena+hblkhd)
        227821 MiB available memory on the node where the printing process lives
------------------
     c_bands:  2 eigenvalues not converged
     ethr =  4.18E-07,  avg # of iterations =  3.5

     total cpu time spent up to now is      116.2 secs

     total energy              =    -553.08029952 Ry
     estimated scf accuracy    <       0.00000854 Ry

     iteration #  7     ecut=    80.00 Ry     beta= 0.70
     Davidson diagonalization with overlap

---- Real-time Memory Report at c_bands before calling an iterative solver
           131 MiB given to the printing process from OS
             0 MiB allocation reported by mallinfo(arena+hblkhd)
        227813 MiB available memory on the node where the printing process lives
------------------
     ethr =  1.47E-08,  avg # of iterations =  2.0

     total cpu time spent up to now is      135.7 secs

     total energy              =    -553.08030242 Ry
     estimated scf accuracy    <       0.00000052 Ry

     iteration #  8     ecut=    80.00 Ry     beta= 0.70
     Davidson diagonalization with overlap

---- Real-time Memory Report at c_bands before calling an iterative solver
           134 MiB given to the printing process from OS
             0 MiB allocation reported by mallinfo(arena+hblkhd)
        227742 MiB available memory on the node where the printing process lives
------------------
     ethr =  8.98E-10,  avg # of iterations =  2.2

     total cpu time spent up to now is      152.1 secs

     total energy              =    -553.08030246 Ry
     estimated scf accuracy    <       0.00000006 Ry

     iteration #  9     ecut=    80.00 Ry     beta= 0.70
     Davidson diagonalization with overlap

---- Real-time Memory Report at c_bands before calling an iterative solver
           135 MiB given to the printing process from OS
             0 MiB allocation reported by mallinfo(arena+hblkhd)
        227741 MiB available memory on the node where the printing process lives
------------------
     ethr =  1.09E-10,  avg # of iterations =  2.2

     total cpu time spent up to now is      170.7 secs

     total energy              =    -553.08030247 Ry
     estimated scf accuracy    <          3.6E-09 Ry

     iteration # 10     ecut=    80.00 Ry     beta= 0.70
     Davidson diagonalization with overlap

---- Real-time Memory Report at c_bands before calling an iterative solver
           135 MiB given to the printing process from OS
             0 MiB allocation reported by mallinfo(arena+hblkhd)
        227737 MiB available memory on the node where the printing process lives
------------------
     ethr =  6.29E-12,  avg # of iterations =  2.3

     total cpu time spent up to now is      189.4 secs

     End of self-consistent calculation

          k = 0.0000 0.0000 0.0000 (  5409 PWs)   bands (ev):

   -79.3840 -79.3840 -79.3827 -79.3827 -46.2264 -46.2264 -46.2157 -46.2157
   -32.7654 -32.7654 -32.7547 -32.7547 -32.6220 -32.6220 -32.6077 -32.6077
    -7.0741  -7.0741  -5.9183  -5.9183  -5.0033  -5.0033  -4.8018  -4.8018
     4.2690   4.2690   4.5162   4.5162   6.0331   6.0331   6.1446   6.1446
     6.2585   6.2585   8.7861   8.7861   8.9381   8.9381   9.1958   9.1958
    10.3332  10.3332  10.9884  10.9884  10.9909  10.9909  11.0309  11.0309
    11.2045  11.2045  11.3855  11.3855  11.6466  11.6466  11.6731  11.6731
    12.0586  12.0586  14.6453  14.6453  15.0718  15.0718  17.6887  17.6887
    17.8970  17.8970  18.0458  18.0458  19.4480  19.4480

     occupation numbers 
     1.0000   1.0000   1.0000   1.0000   1.0000   1.0000   1.0000   1.0000
     1.0000   1.0000   1.0000   1.0000   1.0000   1.0000   1.0000   1.0000
     1.0000   1.0000   1.0000   1.0000   1.0000   1.0000   1.0000   1.0000
     1.0000   1.0000   1.0000   1.0000   1.0000   1.0000   1.0000   1.0000
     1.0000   1.0000   1.0000   1.0000   1.0000   1.0000   1.0000   1.0000
     1.0000   1.0000   1.0000   1.0000   1.0000   1.0000   1.0000   1.0000
     1.0000   1.0000   1.0000   1.0000   1.0000   1.0000   1.0000   1.0000
     1.0000   1.0000  -0.0000  -0.0000  -0.0000  -0.0000  -0.0000  -0.0000
    -0.0000  -0.0000  -0.0000  -0.0000  -0.0000  -0.0000

          k = 0.0000 0.0000 0.1781 (  5369 PWs)   bands (ev):

   -79.3836 -79.3836 -79.3824 -79.3824 -46.2277 -46.2277 -46.2177 -46.2177
   -32.7688 -32.7688 -32.7630 -32.7630 -32.6282 -32.6282 -32.6107 -32.6107
    -6.9329  -6.9329  -5.8454  -5.8454  -5.0692  -5.0692  -4.8902  -4.8902
     4.4750   4.4750   4.6647   4.6647   6.1559   6.1559   6.2297   6.2297
     6.4091   6.4091   8.2474   8.2474   9.0439   9.0439   9.3035   9.3035
     9.5390   9.5390  10.1217  10.1217  10.2296  10.2296  11.2939  11.2939
    11.6184  11.6184  11.6418  11.6418  11.7610  11.7610  12.3593  12.3593
    12.4492  12.4492  14.9252  14.9252  14.9735  14.9735  17.3275  17.3275
    17.6439  17.6439  18.2986  18.2986  19.1806  19.1806

     occupation numbers 
     1.0000   1.0000   1.0000   1.0000   1.0000   1.0000   1.0000   1.0000
     1.0000   1.0000   1.0000   1.0000   1.0000   1.0000   1.0000   1.0000
     1.0000   1.0000   1.0000   1.0000   1.0000   1.0000   1.0000   1.0000
     1.0000   1.0000   1.0000   1.0000   1.0000   1.0000   1.0000   1.0000
     1.0000   1.0000   1.0000   1.0000   1.0000   1.0000   1.0000   1.0000
     1.0000   1.0000   1.0000   1.0000   1.0000   1.0000   1.0000   1.0000
     1.0000   1.0000   1.0000   1.0000   1.0000   1.0000   1.0000   1.0000
     1.0000   1.0000  -0.0000  -0.0000  -0.0000  -0.0000  -0.0000  -0.0000
    -0.0000  -0.0000  -0.0000  -0.0000  -0.0000  -0.0000

          k = 0.0000 0.0000 0.3562 (  5381 PWs)   bands (ev):

   -79.3826 -79.3826 -79.3817 -79.3817 -46.2305 -46.2305 -46.2229 -46.2229
   -32.7843 -32.7843 -32.7818 -32.7818 -32.6377 -32.6377 -32.6173 -32.6173
    -6.5595  -6.5595  -5.6918  -5.6918  -5.2185  -5.2185  -5.0986  -5.0986
     5.0373   5.0373   5.0445   5.0445   6.4667   6.4667   6.4697   6.4697
     6.8577   6.8577   7.2525   7.2525   8.2930   8.2930   9.1135   9.1135
     9.3287   9.3287   9.4450   9.4450   9.7650   9.7650  10.5851  10.5851
    11.7975  11.7975  11.9549  11.9549  12.1527  12.1527  13.1809  13.1809
    13.2012  13.2012  14.5209  14.5209  15.6432  15.6432  16.6627  16.6627
    16.9546  16.9546  17.9986  17.9986  19.8592  19.8592

     occupation numbers 
     1.0000   1.0000   1.0000   1.0000   1.0000   1.0000   1.0000   1.0000
     1.0000   1.0000   1.0000   1.0000   1.0000   1.0000   1.0000   1.0000
     1.0000   1.0000   1.0000   1.0000   1.0000   1.0000   1.0000   1.0000
     1.0000   1.0000   1.0000   1.0000   1.0000   1.0000   1.0000   1.0000
     1.0000   1.0000   1.0000   1.0000   1.0000   1.0000   1.0000   1.0000
     1.0000   1.0000   1.0000   1.0000   1.0000   1.0000   1.0000   1.0000
     1.0000   1.0000   1.0000   1.0000   1.0000   1.0000   1.0000   1.0000
     1.0000   1.0000  -0.0000  -0.0000  -0.0000  -0.0000  -0.0000  -0.0000
    -0.0000  -0.0000  -0.0000  -0.0000  -0.0000  -0.0000

          k = 0.0000 0.0000 0.5343 (  5393 PWs)   bands (ev):

   -79.3816 -79.3816 -79.3811 -79.3811 -46.2327 -46.2327 -46.2286 -46.2286
   -32.8059 -32.8059 -32.8017 -32.8017 -32.6386 -32.6386 -32.6246 -32.6246
    -6.0948  -6.0948  -5.6140  -5.6140  -5.3498  -5.3498  -5.3051  -5.3051
     5.4590   5.4590   5.7050   5.7050   6.4514   6.4514   6.8511   6.8511
     6.9008   6.9008   7.3413   7.3413   7.5962   7.5962   8.4799   8.4799
     8.6089   8.6089   9.5878   9.5878   9.7585   9.7585   9.9597   9.9597
    11.7913  11.7913  12.1415  12.1415  12.4591  12.4591  13.5921  13.5921
    13.8255  13.8255  14.0991  14.0991  16.0605  16.0605  16.2269  16.2269
    16.5474  16.5474  17.0896  17.0896  21.4167  21.4167

     occupation numbers 
     1.0000   1.0000   1.0000   1.0000   1.0000   1.0000   1.0000   1.0000
     1.0000   1.0000   1.0000   1.0000   1.0000   1.0000   1.0000   1.0000
     1.0000   1.0000   1.0000   1.0000   1.0000   1.0000   1.0000   1.0000
     1.0000   1.0000   1.0000   1.0000   1.0000   1.0000   1.0000   1.0000
     1.0000   1.0000   1.0000   1.0000   1.0000   1.0000   1.0000   1.0000
     1.0000   1.0000   1.0000   1.0000   1.0000   1.0000   1.0000   1.0000
     1.0000   1.0000   1.0000   1.0000   1.0000   1.0000   1.0000   1.0000
     0.9657   0.9657  -0.0000  -0.0000  -0.0000  -0.0000  -0.0000  -0.0000
    -0.0000  -0.0000  -0.0000  -0.0000  -0.0000  -0.0000

          k = 0.0000 0.0000-0.7124 (  5314 PWs)   bands (ev):

   -79.3810 -79.3810 -79.3810 -79.3810 -46.2323 -46.2323 -46.2323 -46.2323
   -32.8132 -32.8132 -32.8132 -32.8132 -32.6324 -32.6324 -32.6324 -32.6324
    -5.7335  -5.7335  -5.7335  -5.7335  -5.4006  -5.4006  -5.4006  -5.4006
     5.7330   5.7330   5.7330   5.7330   6.7025   6.7025   6.7025   6.7025
     7.0982   7.0982   7.0982   7.0982   8.2017   8.2017   8.2017   8.2017
     8.5517   8.5517   8.5517   8.5517   9.9572   9.9572   9.9572   9.9572
    11.8960  11.8960  11.8960  11.8960  13.0827  13.0827  13.0827  13.0827
    14.1206  14.1206  14.1206  14.1206  16.0945  16.0945  16.0945  16.0945
    16.6094  16.6094  16.6094  16.6094  22.9239  22.9239

     occupation numbers 
     1.0000   1.0000   1.0000   1.0000   1.0000   1.0000   1.0000   1.0000
     1.0000   1.0000   1.0000   1.0000   1.0000   1.0000   1.0000   1.0000
     1.0000   1.0000   1.0000   1.0000   1.0000   1.0000   1.0000   1.0000
     1.0000   1.0000   1.0000   1.0000   1.0000   1.0000   1.0000   1.0000
     1.0000   1.0000   1.0000   1.0000   1.0000   1.0000   1.0000   1.0000
     1.0000   1.0000   1.0000   1.0000   1.0000   1.0000   1.0000   1.0000
     1.0000   1.0000   1.0000   1.0000   1.0000   1.0000   1.0000   1.0000
    -0.0000  -0.0000  -0.0000  -0.0000  -0.0000  -0.0000  -0.0000  -0.0000
    -0.0000  -0.0000  -0.0000  -0.0000  -0.0000  -0.0000

          k = 0.0000 0.1000 0.0000 (  5371 PWs)   bands (ev):

   -79.3840 -79.3840 -79.3827 -79.3827 -46.2262 -46.2262 -46.2160 -46.2160
   -32.7648 -32.7648 -32.7546 -32.7546 -32.6221 -32.6221 -32.6084 -32.6084
    -7.0362  -7.0362  -5.9131  -5.9131  -5.0359  -5.0359  -4.8411  -4.8411
     4.3663   4.3663   4.5892   4.5892   6.0482   6.0482   6.1534   6.1534
     6.3207   6.3207   8.7393   8.7393   8.7904   8.7904   9.0521   9.0521
    10.1100  10.1100  10.6263  10.6263  10.8055  10.8055  11.2748  11.2748
    11.3588  11.3588  11.5537  11.5537  11.6566  11.6566  11.7895  11.7895
    12.1965  12.1965  14.8086  14.8086  15.0000  15.0000  17.6518  17.6518
    17.9911  17.9911  18.0725  18.0725  19.3574  19.3574

     occupation numbers 
     1.0000   1.0000   1.0000   1.0000   1.0000   1.0000   1.0000   1.0000
     1.0000   1.0000   1.0000   1.0000   1.0000   1.0000   1.0000   1.0000
     1.0000   1.0000   1.0000   1.0000   1.0000   1.0000   1.0000   1.0000
     1.0000   1.0000   1.0000   1.0000   1.0000   1.0000   1.0000   1.0000
     1.0000   1.0000   1.0000   1.0000   1.0000   1.0000   1.0000   1.0000
     1.0000   1.0000   1.0000   1.0000   1.0000   1.0000   1.0000   1.0000
     1.0000   1.0000   1.0000   1.0000   1.0000   1.0000   1.0000   1.0000
     1.0000   1.0000  -0.0000  -0.0000  -0.0000  -0.0000  -0.0000  -0.0000
    -0.0000  -0.0000  -0.0000  -0.0000  -0.0000  -0.0000

          k = 0.0000 0.1000 0.1781 (  5378 PWs)   bands (ev):

   -79.3836 -79.3836 -79.3824 -79.3824 -46.2274 -46.2274 -46.2180 -46.2180
   -32.7691 -32.7691 -32.7623 -32.7623 -32.6282 -32.6282 -32.6113 -32.6113
    -6.8967  -6.8967  -5.8382  -5.8382  -5.1005  -5.1005  -4.9266  -4.9266
     4.5625   4.5625   4.7366   4.7366   6.1565   6.1565   6.2271   6.2271
     6.4982   6.4982   8.1858   8.1858   8.8891   8.8891   9.1388   9.1388
     9.4319   9.4319  10.1130  10.1130  10.1910  10.1910  11.3589  11.3589
    11.4805  11.4805  11.7995  11.7995  11.8798  11.8798  12.3551  12.3551
    12.5382  12.5382  14.8524  14.8524  15.1231  15.1231  17.2523  17.2523
    17.5664  17.5664  18.5102  18.5102  19.1205  19.1205

     occupation numbers 
     1.0000   1.0000   1.0000   1.0000   1.0000   1.0000   1.0000   1.0000
     1.0000   1.0000   1.0000   1.0000   1.0000   1.0000   1.0000   1.0000
     1.0000   1.0000   1.0000   1.0000   1.0000   1.0000   1.0000   1.0000
     1.0000   1.0000   1.0000   1.0000   1.0000   1.0000   1.0000   1.0000
     1.0000   1.0000   1.0000   1.0000   1.0000   1.0000   1.0000   1.0000
     1.0000   1.0000   1.0000   1.0000   1.0000   1.0000   1.0000   1.0000
     1.0000   1.0000   1.0000   1.0000   1.0000   1.0000   1.0000   1.0000
     1.0000   1.0000  -0.0000  -0.0000  -0.0000  -0.0000  -0.0000  -0.0000
    -0.0000  -0.0000  -0.0000  -0.0000  -0.0000  -0.0000

          k = 0.0000 0.1000 0.3562 (  5381 PWs)   bands (ev):

   -79.3826 -79.3826 -79.3817 -79.3817 -46.2303 -46.2303 -46.2231 -46.2231
   -32.7868 -32.7868 -32.7791 -32.7791 -32.6377 -32.6377 -32.6176 -32.6176
    -6.5295  -6.5295  -5.6824  -5.6824  -5.2442  -5.2442  -5.1254  -5.1254
     5.0809   5.0809   5.1223   5.1223   6.4294   6.4294   6.4786   6.4786
     6.9679   6.9679   7.2174   7.2174   8.1017   8.1017   9.1490   9.1490
     9.3221   9.3221   9.4421   9.4421   9.6248   9.6248  10.6818  10.6818
    11.7589  11.7589  11.9796  11.9796  12.2240  12.2240  13.1177  13.1177
    13.2429  13.2429  14.4789  14.4789  15.7470  15.7470  16.5457  16.5457
    16.8818  16.8818  18.1377  18.1377  19.9418  19.9418

     occupation numbers 
     1.0000   1.0000   1.0000   1.0000   1.0000   1.0000   1.0000   1.0000
     1.0000   1.0000   1.0000   1.0000   1.0000   1.0000   1.0000   1.0000
     1.0000   1.0000   1.0000   1.0000   1.0000   1.0000   1.0000   1.0000
     1.0000   1.0000   1.0000   1.0000   1.0000   1.0000   1.0000   1.0000
     1.0000   1.0000   1.0000   1.0000   1.0000   1.0000   1.0000   1.0000
     1.0000   1.0000   1.0000   1.0000   1.0000   1.0000   1.0000   1.0000
     1.0000   1.0000   1.0000   1.0000   1.0000   1.0000   1.0000   1.0000
     1.0000   1.0000  -0.0000  -0.0000  -0.0000  -0.0000  -0.0000  -0.0000
    -0.0000  -0.0000  -0.0000  -0.0000  -0.0000  -0.0000

          k = 0.0000 0.1000 0.5343 (  5386 PWs)   bands (ev):

   -79.3816 -79.3816 -79.3811 -79.3811 -46.2326 -46.2326 -46.2287 -46.2287
   -32.8087 -32.8087 -32.7988 -32.7988 -32.6390 -32.6390 -32.6243 -32.6243
    -6.0796  -6.0796  -5.6194  -5.6194  -5.3657  -5.3657  -5.3003  -5.3003
     5.4972   5.4972   5.7253   5.7253   6.3040   6.3040   6.7846   6.7846
     7.0161   7.0161   7.2993   7.2993   7.7142   7.7142   8.5054   8.5054
     8.6586   8.6586   9.5989   9.5989   9.7760   9.7760   9.8796   9.8796
    11.8322  11.8322  12.1534  12.1534  12.3564  12.3564  13.4550  13.4550
    13.8183  13.8183  14.1726  14.1726  15.9305  15.9305  16.0537  16.0537
    16.6623  16.6623  17.3720  17.3720  21.4675  21.4675

     occupation numbers 
     1.0000   1.0000   1.0000   1.0000   1.0000   1.0000   1.0000   1.0000
     1.0000   1.0000   1.0000   1.0000   1.0000   1.0000   1.0000   1.0000
     1.0000   1.0000   1.0000   1.0000   1.0000   1.0000   1.0000   1.0000
     1.0000   1.0000   1.0000   1.0000   1.0000   1.0000   1.0000   1.0000
     1.0000   1.0000   1.0000   1.0000   1.0000   1.0000   1.0000   1.0000
     1.0000   1.0000   1.0000   1.0000   1.0000   1.0000   1.0000   1.0000
     1.0000   1.0000   1.0000   1.0000   1.0000   1.0000   1.0000   1.0000
     0.9959   0.9959  -0.0000  -0.0000  -0.0000  -0.0000  -0.0000  -0.0000
    -0.0000  -0.0000  -0.0000  -0.0000  -0.0000  -0.0000

          k = 0.0000 0.1000-0.7124 (  5376 PWs)   bands (ev):

   -79.3810 -79.3810 -79.3810 -79.3810 -46.2326 -46.2326 -46.2320 -46.2320
   -32.8180 -32.8180 -32.8085 -32.8085 -32.6355 -32.6355 -32.6293 -32.6293
    -5.7512  -5.7512  -5.7368  -5.7368  -5.4208  -5.4208  -5.3558  -5.3558
     5.7271   5.7271   5.7587   5.7587   6.4441   6.4441   6.5185   6.5185
     7.3075   7.3075   7.3165   7.3165   8.1422   8.1422   8.2604   8.2604
     8.6478   8.6478   8.6841   8.6841   9.8772   9.8772   9.9069   9.9069
    11.8838  11.8838  11.9120  11.9120  12.8871  12.8871  13.0396  13.0396
    14.0458  14.0458  14.2559  14.2559  15.7868  15.7868  15.8980  15.8980
    16.8286  16.8286  17.0119  17.0119  22.9240  22.9382

     occupation numbers 
     1.0000   1.0000   1.0000   1.0000   1.0000   1.0000   1.0000   1.0000
     1.0000   1.0000   1.0000   1.0000   1.0000   1.0000   1.0000   1.0000
     1.0000   1.0000   1.0000   1.0000   1.0000   1.0000   1.0000   1.0000
     1.0000   1.0000   1.0000   1.0000   1.0000   1.0000   1.0000   1.0000
     1.0000   1.0000   1.0000   1.0000   1.0000   1.0000   1.0000   1.0000
     1.0000   1.0000   1.0000   1.0000   1.0000   1.0000   1.0000   1.0000
     1.0000   1.0000   1.0000   1.0000   1.0000   1.0000   1.0000   1.0000
    -0.0011  -0.0011  -0.0000  -0.0000  -0.0000  -0.0000  -0.0000  -0.0000
    -0.0000  -0.0000  -0.0000  -0.0000  -0.0000  -0.0000

          k = 0.0000 0.2000 0.0000 (  5363 PWs)   bands (ev):

   -79.3839 -79.3839 -79.3828 -79.3828 -46.2254 -46.2254 -46.2167 -46.2167
   -32.7633 -32.7633 -32.7546 -32.7546 -32.6220 -32.6220 -32.6104 -32.6104
    -6.9253  -6.9253  -5.9071  -5.9071  -5.1301  -5.1301  -4.9382  -4.9382
     4.6388   4.6388   4.7999   4.7999   6.0871   6.0871   6.1771   6.1771
     6.5092   6.5092   8.4062   8.4062   8.5612   8.5612   8.7546   8.7546
     9.7134   9.7134   9.9930   9.9930  10.6487  10.6487  11.4545  11.4545
    11.5639  11.5639  11.6599  11.6599  11.9153  11.9153  12.0585  12.0585
    12.4786  12.4786  14.7653  14.7653  15.2855  15.2855  17.5406  17.5406
    17.8447  17.8447  18.5605  18.5605  19.0921  19.0921

     occupation numbers 
     1.0000   1.0000   1.0000   1.0000   1.0000   1.0000   1.0000   1.0000
     1.0000   1.0000   1.0000   1.0000   1.0000   1.0000   1.0000   1.0000
     1.0000   1.0000   1.0000   1.0000   1.0000   1.0000   1.0000   1.0000
     1.0000   1.0000   1.0000   1.0000   1.0000   1.0000   1.0000   1.0000
     1.0000   1.0000   1.0000   1.0000   1.0000   1.0000   1.0000   1.0000
     1.0000   1.0000   1.0000   1.0000   1.0000   1.0000   1.0000   1.0000
     1.0000   1.0000   1.0000   1.0000   1.0000   1.0000   1.0000   1.0000
     1.0000   1.0000  -0.0000  -0.0000  -0.0000  -0.0000  -0.0000  -0.0000
    -0.0000  -0.0000  -0.0000  -0.0000  -0.0000  -0.0000

          k = 0.0000 0.2000 0.1781 (  5370 PWs)   bands (ev):

   -79.3835 -79.3835 -79.3825 -79.3825 -46.2267 -46.2267 -46.2187 -46.2187
   -32.7695 -32.7695 -32.7606 -32.7606 -32.6281 -32.6281 -32.6130 -32.6130
    -6.7906  -6.7906  -5.8247  -5.8247  -5.1934  -5.1934  -5.0159  -5.0159
     4.8087   4.8087   4.9456   4.9456   6.1752   6.1752   6.2355   6.2355
     6.7151   6.7151   8.0655   8.0655   8.5036   8.5036   8.7663   8.7663
     9.0352   9.0352   9.9857   9.9857  10.2256  10.2256  11.2791  11.2791
    11.5716  11.5716  12.0464  12.0464  12.0743  12.0743  12.4029  12.4029
    12.7497  12.7497  14.6466  14.6466  15.5268  15.5268  17.0782  17.0782
    17.4085  17.4085  18.8645  18.8645  19.0847  19.0847

     occupation numbers 
     1.0000   1.0000   1.0000   1.0000   1.0000   1.0000   1.0000   1.0000
     1.0000   1.0000   1.0000   1.0000   1.0000   1.0000   1.0000   1.0000
     1.0000   1.0000   1.0000   1.0000   1.0000   1.0000   1.0000   1.0000
     1.0000   1.0000   1.0000   1.0000   1.0000   1.0000   1.0000   1.0000
     1.0000   1.0000   1.0000   1.0000   1.0000   1.0000   1.0000   1.0000
     1.0000   1.0000   1.0000   1.0000   1.0000   1.0000   1.0000   1.0000
     1.0000   1.0000   1.0000   1.0000   1.0000   1.0000   1.0000   1.0000
     1.0000   1.0000  -0.0000  -0.0000  -0.0000  -0.0000  -0.0000  -0.0000
    -0.0000  -0.0000  -0.0000  -0.0000  -0.0000  -0.0000

          k = 0.0000 0.2000 0.3562 (  5389 PWs)   bands (ev):

   -79.3825 -79.3825 -79.3818 -79.3818 -46.2298 -46.2298 -46.2236 -46.2236
   -32.7897 -32.7897 -32.7756 -32.7756 -32.6376 -32.6376 -32.6185 -32.6185
    -6.4416  -6.4416  -5.6564  -5.6564  -5.3279  -5.3279  -5.1896  -5.1896
     5.2376   5.2376   5.3148   5.3148   6.3979   6.3979   6.4885   6.4885
     7.0554   7.0554   7.3063   7.3063   7.7163   7.7163   8.8613   8.8613
     9.2092   9.2092   9.4766   9.4766   9.6009   9.6009  10.9207  10.9207
    11.4917  11.4917  12.1949  12.1949  12.3779  12.3779  12.9689  12.9689
    13.3463  13.3463  14.3578  14.3578  15.9625  15.9625  16.2786  16.2786
    16.8173  16.8173  18.3326  18.3326  20.2198  20.2198

     occupation numbers 
     1.0000   1.0000   1.0000   1.0000   1.0000   1.0000   1.0000   1.0000
     1.0000   1.0000   1.0000   1.0000   1.0000   1.0000   1.0000   1.0000
     1.0000   1.0000   1.0000   1.0000   1.0000   1.0000   1.0000   1.0000
     1.0000   1.0000   1.0000   1.0000   1.0000   1.0000   1.0000   1.0000
     1.0000   1.0000   1.0000   1.0000   1.0000   1.0000   1.0000   1.0000
     1.0000   1.0000   1.0000   1.0000   1.0000   1.0000   1.0000   1.0000
     1.0000   1.0000   1.0000   1.0000   1.0000   1.0000   1.0000   1.0000
     1.0000   1.0000  -0.0000  -0.0000  -0.0000  -0.0000  -0.0000  -0.0000
    -0.0000  -0.0000  -0.0000  -0.0000  -0.0000  -0.0000

          k = 0.0000 0.2000 0.5343 (  5374 PWs)   bands (ev):

   -79.3816 -79.3816 -79.3811 -79.3811 -46.2324 -46.2324 -46.2289 -46.2289
   -32.8126 -32.8126 -32.7950 -32.7950 -32.6398 -32.6398 -32.6237 -32.6237
    -6.0361  -6.0361  -5.6374  -5.6374  -5.3978  -5.3978  -5.2973  -5.2973
     5.5973   5.5973   5.7782   5.7782   6.0959   6.0959   6.5941   6.5941
     7.1788   7.1788   7.2518   7.2518   7.9701   7.9701   8.5402   8.5402
     8.8033   8.8033   9.4595   9.4595   9.6632   9.6632  10.0486  10.0486
    11.8413  11.8413  12.1106  12.1106  12.2218  12.2218  13.1216  13.1216
    13.8681  13.8681  14.2614  14.2614  15.6321  15.6321  15.7897  15.7897
    17.0194  17.0194  17.8058  17.8058  21.6237  21.6237

     occupation numbers 
     1.0000   1.0000   1.0000   1.0000   1.0000   1.0000   1.0000   1.0000
     1.0000   1.0000   1.0000   1.0000   1.0000   1.0000   1.0000   1.0000
     1.0000   1.0000   1.0000   1.0000   1.0000   1.0000   1.0000   1.0000
     1.0000   1.0000   1.0000   1.0000   1.0000   1.0000   1.0000   1.0000
     1.0000   1.0000   1.0000   1.0000   1.0000   1.0000   1.0000   1.0000
     1.0000   1.0000   1.0000   1.0000   1.0000   1.0000   1.0000   1.0000
     1.0000   1.0000   1.0000   1.0000   1.0000   1.0000   1.0000   1.0000
     0.5775   0.5775  -0.0000  -0.0000  -0.0000  -0.0000  -0.0000  -0.0000
    -0.0000  -0.0000  -0.0000  -0.0000  -0.0000  -0.0000

          k = 0.0000 0.2000-0.7124 (  5378 PWs)   bands (ev):

   -79.3810 -79.3810 -79.3810 -79.3810 -46.2329 -46.2329 -46.2317 -46.2317
   -32.8225 -32.8225 -32.8043 -32.8043 -32.6383 -32.6383 -32.6265 -32.6265
    -5.7777  -5.7777  -5.7614  -5.7614  -5.4140  -5.4140  -5.3016  -5.3016
     5.6996   5.6996   5.7788   5.7788   6.1654   6.1654   6.2850   6.2850
     7.5342   7.5342   7.6078   7.6078   8.1018   8.1018   8.3154   8.3154
     8.9585   8.9585   9.0200   9.0200   9.7060   9.7060   9.7446   9.7446
    11.8831  11.8831  11.8990  11.8990  12.5229  12.5229  12.7733  12.7733
    14.0612  14.0612  14.3779  14.3779  15.4648  15.4648  15.5455  15.5455
    17.3123  17.3123  17.5146  17.5146  22.9490  22.9536

     occupation numbers 
     1.0000   1.0000   1.0000   1.0000   1.0000   1.0000   1.0000   1.0000
     1.0000   1.0000   1.0000   1.0000   1.0000   1.0000   1.0000   1.0000
     1.0000   1.0000   1.0000   1.0000   1.0000   1.0000   1.0000   1.0000
     1.0000   1.0000   1.0000   1.0000   1.0000   1.0000   1.0000   1.0000
     1.0000   1.0000   1.0000   1.0000   1.0000   1.0000   1.0000   1.0000
     1.0000   1.0000   1.0000   1.0000   1.0000   1.0000   1.0000   1.0000
     1.0000   1.0000   1.0000   1.0000   1.0000   1.0000   1.0000   1.0000
    -0.0004  -0.0004  -0.0000  -0.0000  -0.0000  -0.0000  -0.0000  -0.0000
    -0.0000  -0.0000  -0.0000  -0.0000  -0.0000  -0.0000

          k = 0.0000 0.3000 0.0000 (  5376 PWs)   bands (ev):

   -79.3837 -79.3837 -79.3829 -79.3829 -46.2242 -46.2242 -46.2179 -46.2179
   -32.7611 -32.7611 -32.7548 -32.7548 -32.6216 -32.6216 -32.6132 -32.6132
    -6.7498  -6.7498  -5.9372  -5.9372  -5.2482  -5.2482  -5.0550  -5.0550
     5.0264   5.0264   5.1209   5.1209   6.1395   6.1395   6.2071   6.2071
     6.8201   6.8201   7.9254   7.9254   8.0920   8.0920   8.6370   8.6370
     9.2536   9.2536   9.3470   9.3470  10.6052  10.6052  11.2608  11.2608
    11.8273  11.8273  11.9385  11.9385  12.1601  12.1601  12.3372  12.3372
    12.8195  12.8195  14.4430  14.4430  15.9290  15.9290  17.4019  17.4019
    17.6522  17.6522  18.6570  18.6570  19.2562  19.2562

     occupation numbers 
     1.0000   1.0000   1.0000   1.0000   1.0000   1.0000   1.0000   1.0000
     1.0000   1.0000   1.0000   1.0000   1.0000   1.0000   1.0000   1.0000
     1.0000   1.0000   1.0000   1.0000   1.0000   1.0000   1.0000   1.0000
     1.0000   1.0000   1.0000   1.0000   1.0000   1.0000   1.0000   1.0000
     1.0000   1.0000   1.0000   1.0000   1.0000   1.0000   1.0000   1.0000
     1.0000   1.0000   1.0000   1.0000   1.0000   1.0000   1.0000   1.0000
     1.0000   1.0000   1.0000   1.0000   1.0000   1.0000   1.0000   1.0000
     1.0000   1.0000  -0.0000  -0.0000  -0.0000  -0.0000  -0.0000  -0.0000
    -0.0000  -0.0000  -0.0000  -0.0000  -0.0000  -0.0000

          k = 0.0000 0.3000 0.1781 (  5376 PWs)   bands (ev):

   -79.3833 -79.3833 -79.3826 -79.3826 -46.2257 -46.2257 -46.2198 -46.2198
   -32.7698 -32.7698 -32.7587 -32.7587 -32.6278 -32.6278 -32.6153 -32.6153
    -6.6227  -6.6227  -5.8406  -5.8406  -5.3144  -5.3144  -5.1228  -5.1228
     5.1637   5.1637   5.2694   5.2694   6.2040   6.2040   6.2518   6.2518
     7.0046   7.0046   7.9886   7.9886   8.0725   8.0725   8.2928   8.2928
     8.5150   8.5150   9.5682   9.5682  10.4250  10.4250  11.1321  11.1321
    11.8016  11.8016  12.1152  12.1152  12.3326  12.3326  12.5888  12.5888
    13.0132  13.0132  14.3460  14.3460  16.0718  16.0718  16.8946  16.8946
    17.2324  17.2324  18.5694  18.5694  19.7221  19.7221

     occupation numbers 
     1.0000   1.0000   1.0000   1.0000   1.0000   1.0000   1.0000   1.0000
     1.0000   1.0000   1.0000   1.0000   1.0000   1.0000   1.0000   1.0000
     1.0000   1.0000   1.0000   1.0000   1.0000   1.0000   1.0000   1.0000
     1.0000   1.0000   1.0000   1.0000   1.0000   1.0000   1.0000   1.0000
     1.0000   1.0000   1.0000   1.0000   1.0000   1.0000   1.0000   1.0000
     1.0000   1.0000   1.0000   1.0000   1.0000   1.0000   1.0000   1.0000
     1.0000   1.0000   1.0000   1.0000   1.0000   1.0000   1.0000   1.0000
     1.0000   1.0000  -0.0000  -0.0000  -0.0000  -0.0000  -0.0000  -0.0000
    -0.0000  -0.0000  -0.0000  -0.0000  -0.0000  -0.0000

          k = 0.0000 0.3000 0.3562 (  5368 PWs)   bands (ev):

   -79.3824 -79.3824 -79.3819 -79.3819 -46.2290 -46.2290 -46.2244 -46.2244
   -32.7919 -32.7919 -32.7727 -32.7727 -32.6373 -32.6373 -32.6197 -32.6197
    -6.3025  -6.3025  -5.6298  -5.6298  -5.4592  -5.4592  -5.2655  -5.2655
     5.4880   5.4880   5.5922   5.5922   6.3933   6.3933   6.5172   6.5172
     6.9296   6.9296   7.2943   7.2943   7.6803   7.6803   8.4656   8.4656
     8.7951   8.7951   9.4267   9.4267   9.8741   9.8741  10.9558  10.9558
    11.4461  11.4461  12.3759  12.3759  12.4974  12.4974  12.8603  12.8603
    13.4645  13.4645  14.1954  14.1954  15.9433  15.9433  16.1047  16.1047
    16.9836  16.9836  18.3537  18.3537  20.7083  20.7083

     occupation numbers 
     1.0000   1.0000   1.0000   1.0000   1.0000   1.0000   1.0000   1.0000
     1.0000   1.0000   1.0000   1.0000   1.0000   1.0000   1.0000   1.0000
     1.0000   1.0000   1.0000   1.0000   1.0000   1.0000   1.0000   1.0000
     1.0000   1.0000   1.0000   1.0000   1.0000   1.0000   1.0000   1.0000
     1.0000   1.0000   1.0000   1.0000   1.0000   1.0000   1.0000   1.0000
     1.0000   1.0000   1.0000   1.0000   1.0000   1.0000   1.0000   1.0000
     1.0000   1.0000   1.0000   1.0000   1.0000   1.0000   1.0000   1.0000
     1.0000   1.0000  -0.0000  -0.0000  -0.0000  -0.0000  -0.0000  -0.0000
    -0.0000  -0.0000  -0.0000  -0.0000  -0.0000  -0.0000

          k = 0.0000 0.3000 0.5343 (  5375 PWs)   bands (ev):

   -79.3815 -79.3815 -79.3812 -79.3812 -46.2321 -46.2321 -46.2292 -46.2292
   -32.8157 -32.8157 -32.7919 -32.7919 -32.6406 -32.6406 -32.6230 -32.6230
    -5.9699  -5.9699  -5.6731  -5.6731  -5.4297  -5.4297  -5.3005  -5.3005
     5.7022   5.7022   5.8228   5.8228   6.0030   6.0030   6.3859   6.3859
     7.1350   7.1350   7.4292   7.4292   8.0856   8.0856   8.6782   8.6782
     8.9689   8.9689   9.1944   9.1944   9.5737   9.5737  10.4386  10.4386
    11.5146  11.5146  12.1217  12.1217  12.2036  12.2036  12.7564  12.7564
    13.9280  13.9280  14.3213  14.3213  15.3490  15.3490  15.5613  15.5613
    17.4508  17.4508  18.1350  18.1350  21.8945  21.8945

     occupation numbers 
     1.0000   1.0000   1.0000   1.0000   1.0000   1.0000   1.0000   1.0000
     1.0000   1.0000   1.0000   1.0000   1.0000   1.0000   1.0000   1.0000
     1.0000   1.0000   1.0000   1.0000   1.0000   1.0000   1.0000   1.0000
     1.0000   1.0000   1.0000   1.0000   1.0000   1.0000   1.0000   1.0000
     1.0000   1.0000   1.0000   1.0000   1.0000   1.0000   1.0000   1.0000
     1.0000   1.0000   1.0000   1.0000   1.0000   1.0000   1.0000   1.0000
     1.0000   1.0000   1.0000   1.0000   1.0000   1.0000   1.0000   1.0000
     0.0129   0.0129  -0.0000  -0.0000  -0.0000  -0.0000  -0.0000  -0.0000
    -0.0000  -0.0000  -0.0000  -0.0000  -0.0000  -0.0000

          k = 0.0000 0.3000-0.7124 (  5356 PWs)   bands (ev):

   -79.3810 -79.3810 -79.3810 -79.3810 -46.2331 -46.2331 -46.2315 -46.2315
   -32.8260 -32.8260 -32.8010 -32.8010 -32.6405 -32.6405 -32.6242 -32.6242
    -5.8025  -5.8025  -5.7929  -5.7929  -5.3944  -5.3944  -5.2527  -5.2527
     5.5995   5.5995   5.6764   5.6764   6.1069   6.1069   6.1987   6.1987
     7.6085   7.6085   7.8460   7.8460   8.1703   8.1703   8.3733   8.3733
     9.2542   9.2542   9.2775   9.2775   9.6839   9.6839   9.7015   9.7015
    11.7758  11.7758  11.8795  11.8795  12.0497  12.0497  12.4495  12.4495
    14.1086  14.1086  14.4581  14.4581  15.2211  15.2211  15.2756  15.2756
    17.7727  17.7727  17.9659  17.9659  23.0060  23.0065

     occupation numbers 
     1.0000   1.0000   1.0000   1.0000   1.0000   1.0000   1.0000   1.0000
     1.0000   1.0000   1.0000   1.0000   1.0000   1.0000   1.0000   1.0000
     1.0000   1.0000   1.0000   1.0000   1.0000   1.0000   1.0000   1.0000
     1.0000   1.0000   1.0000   1.0000   1.0000   1.0000   1.0000   1.0000
     1.0000   1.0000   1.0000   1.0000   1.0000   1.0000   1.0000   1.0000
     1.0000   1.0000   1.0000   1.0000   1.0000   1.0000   1.0000   1.0000
     1.0000   1.0000   1.0000   1.0000   1.0000   1.0000   1.0000   1.0000
    -0.0000  -0.0000  -0.0000  -0.0000  -0.0000  -0.0000  -0.0000  -0.0000
    -0.0000  -0.0000  -0.0000  -0.0000  -0.0000  -0.0000

          k = 0.0000 0.4000 0.0000 (  5370 PWs)   bands (ev):

   -79.3835 -79.3835 -79.3831 -79.3831 -46.2228 -46.2228 -46.2194 -46.2194
   -32.7588 -32.7588 -32.7555 -32.7555 -32.6205 -32.6205 -32.6161 -32.6161
    -6.5256  -6.5256  -6.0626  -6.0626  -5.3029  -5.3029  -5.1696  -5.1696
     5.4169   5.4169   5.4756   5.4756   6.1976   6.1976   6.2325   6.2325
     7.1969   7.1969   7.5479   7.5479   7.5811   7.5811   8.5269   8.5269
     8.6627   8.6627   9.0056   9.0056  10.6740  10.6740  11.0370  11.0370
    12.0186  12.0186  12.1124  12.1124  12.3594  12.3594  12.5056  12.5056
    13.2152  13.2152  14.0553  14.0553  16.6448  16.6448  17.3007  17.3007
    17.4780  17.4780  18.1007  18.1007  20.0227  20.0227

     occupation numbers 
     1.0000   1.0000   1.0000   1.0000   1.0000   1.0000   1.0000   1.0000
     1.0000   1.0000   1.0000   1.0000   1.0000   1.0000   1.0000   1.0000
     1.0000   1.0000   1.0000   1.0000   1.0000   1.0000   1.0000   1.0000
     1.0000   1.0000   1.0000   1.0000   1.0000   1.0000   1.0000   1.0000
     1.0000   1.0000   1.0000   1.0000   1.0000   1.0000   1.0000   1.0000
     1.0000   1.0000   1.0000   1.0000   1.0000   1.0000   1.0000   1.0000
     1.0000   1.0000   1.0000   1.0000   1.0000   1.0000   1.0000   1.0000
     1.0000   1.0000  -0.0006  -0.0006  -0.0000  -0.0000  -0.0000  -0.0000
    -0.0000  -0.0000  -0.0000  -0.0000  -0.0000  -0.0000

          k = 0.0000 0.4000 0.1781 (  5370 PWs)   bands (ev):

   -79.3832 -79.3832 -79.3828 -79.3828 -46.2243 -46.2243 -46.2212 -46.2212
   -32.7698 -32.7698 -32.7573 -32.7573 -32.6273 -32.6273 -32.6173 -32.6173
    -6.4075  -6.4075  -5.9560  -5.9560  -5.3679  -5.3679  -5.2291  -5.2291
     5.5436   5.5436   5.6449   5.6449   6.1927   6.1927   6.2452   6.2452
     7.3031   7.3031   7.6824   7.6824   7.8182   7.8182   8.0225   8.0225
     8.1698   8.1698   9.0385   9.0385  10.6390  10.6390  10.9935  10.9935
    11.9676  11.9676  12.1069  12.1069  12.5833  12.5833  12.7645  12.7645
    13.2877  13.2877  14.0025  14.0025  16.5359  16.5359  16.8088  16.8088
    17.1778  17.1778  18.1136  18.1136  20.4610  20.4610

     occupation numbers 
     1.0000   1.0000   1.0000   1.0000   1.0000   1.0000   1.0000   1.0000
     1.0000   1.0000   1.0000   1.0000   1.0000   1.0000   1.0000   1.0000
     1.0000   1.0000   1.0000   1.0000   1.0000   1.0000   1.0000   1.0000
     1.0000   1.0000   1.0000   1.0000   1.0000   1.0000   1.0000   1.0000
     1.0000   1.0000   1.0000   1.0000   1.0000   1.0000   1.0000   1.0000
     1.0000   1.0000   1.0000   1.0000   1.0000   1.0000   1.0000   1.0000
     1.0000   1.0000   1.0000   1.0000   1.0000   1.0000   1.0000   1.0000
     1.0000   1.0000  -0.0114  -0.0114  -0.0000  -0.0000  -0.0000  -0.0000
    -0.0000  -0.0000  -0.0000  -0.0000  -0.0000  -0.0000

          k = 0.0000 0.4000 0.3562 (  5373 PWs)   bands (ev):

   -79.3823 -79.3823 -79.3820 -79.3820 -46.2280 -46.2280 -46.2254 -46.2254
   -32.7933 -32.7933 -32.7708 -32.7708 -32.6371 -32.6371 -32.6207 -32.6207
    -6.1235  -6.1235  -5.7207  -5.7207  -5.5037  -5.5037  -5.3425  -5.3425
     5.7834   5.7834   5.8916   5.8916   6.4112   6.4112   6.5534   6.5534
     6.7600   6.7600   6.9302   6.9302   8.0066   8.0066   8.2348   8.2348
     8.4782   8.4782   9.1685   9.1685  10.1705  10.1705  10.6905  10.6905
    11.7542  11.7542  12.2948  12.2948  12.6030  12.6030  12.8844  12.8844
    13.5538  13.5538  14.0625  14.0625  15.7943  15.7943  15.9687  15.9687
    17.3865  17.3865  18.1686  18.1686  21.3291  21.3291

     occupation numbers 
     1.0000   1.0000   1.0000   1.0000   1.0000   1.0000   1.0000   1.0000
     1.0000   1.0000   1.0000   1.0000   1.0000   1.0000   1.0000   1.0000
     1.0000   1.0000   1.0000   1.0000   1.0000   1.0000   1.0000   1.0000
     1.0000   1.0000   1.0000   1.0000   1.0000   1.0000   1.0000   1.0000
     1.0000   1.0000   1.0000   1.0000   1.0000   1.0000   1.0000   1.0000
     1.0000   1.0000   1.0000   1.0000   1.0000   1.0000   1.0000   1.0000
     1.0000   1.0000   1.0000   1.0000   1.0000   1.0000   1.0000   1.0000
     1.0000   1.0000  -0.0003  -0.0003  -0.0000  -0.0000  -0.0000  -0.0000
    -0.0000  -0.0000  -0.0000  -0.0000  -0.0000  -0.0000

          k = 0.0000 0.4000 0.5343 (  5372 PWs)   bands (ev):

   -79.3814 -79.3814 -79.3813 -79.3813 -46.2317 -46.2317 -46.2296 -46.2296
   -32.8178 -32.8178 -32.7899 -32.7899 -32.6413 -32.6413 -32.6225 -32.6225
    -5.8895  -5.8895  -5.7303  -5.7303  -5.4512  -5.4512  -5.3058  -5.3058
     5.7363   5.7363   5.8135   5.8135   6.0740   6.0740   6.2473   6.2473
     7.1238   7.1238   7.5094   7.5094   8.1579   8.1579   8.7356   8.7356
     8.9276   8.9276   9.0599   9.0599   9.8280   9.8280  10.6949  10.6949
    11.2221  11.2221  11.9556  11.9556  12.1996  12.1996  12.5540  12.5540
    13.9700  13.9700  14.3601  14.3601  15.2018  15.2018  15.3527  15.3527
    17.8502  17.8502  18.2671  18.2671  22.2811  22.2811

     occupation numbers 
     1.0000   1.0000   1.0000   1.0000   1.0000   1.0000   1.0000   1.0000
     1.0000   1.0000   1.0000   1.0000   1.0000   1.0000   1.0000   1.0000
     1.0000   1.0000   1.0000   1.0000   1.0000   1.0000   1.0000   1.0000
     1.0000   1.0000   1.0000   1.0000   1.0000   1.0000   1.0000   1.0000
     1.0000   1.0000   1.0000   1.0000   1.0000   1.0000   1.0000   1.0000
     1.0000   1.0000   1.0000   1.0000   1.0000   1.0000   1.0000   1.0000
     1.0000   1.0000   1.0000   1.0000   1.0000   1.0000   1.0000   1.0000
    -0.0315  -0.0315  -0.0000  -0.0000  -0.0000  -0.0000  -0.0000  -0.0000
    -0.0000  -0.0000  -0.0000  -0.0000  -0.0000  -0.0000

          k = 0.0000 0.4000-0.7124 (  5358 PWs)   bands (ev):

   -79.3810 -79.3810 -79.3810 -79.3810 -46.2332 -46.2332 -46.2314 -46.2314
   -32.8283 -32.8283 -32.7989 -32.7989 -32.6419 -32.6419 -32.6228 -32.6228
    -5.8194  -5.8194  -5.8170  -5.8170  -5.3769  -5.3769  -5.2193  -5.2193
     5.4883   5.4883   5.5395   5.5395   6.1757   6.1757   6.2049   6.2049
     7.5651   7.5651   8.0159   8.0159   8.3520   8.3520   8.4837   8.4837
     9.0510   9.0510   9.0823   9.0823  10.1660  10.1660  10.2028  10.2028
    11.4225  11.4225  11.4762  11.4762  11.9027  11.9027  12.2711  12.2711
    14.1471  14.1471  14.4959  14.4959  15.0703  15.0703  15.1161  15.1161
    18.1054  18.1054  18.2824  18.2824  23.0866  23.0873

     occupation numbers 
     1.0000   1.0000   1.0000   1.0000   1.0000   1.0000   1.0000   1.0000
     1.0000   1.0000   1.0000   1.0000   1.0000   1.0000   1.0000   1.0000
     1.0000   1.0000   1.0000   1.0000   1.0000   1.0000   1.0000   1.0000
     1.0000   1.0000   1.0000   1.0000   1.0000   1.0000   1.0000   1.0000
     1.0000   1.0000   1.0000   1.0000   1.0000   1.0000   1.0000   1.0000
     1.0000   1.0000   1.0000   1.0000   1.0000   1.0000   1.0000   1.0000
     1.0000   1.0000   1.0000   1.0000   1.0000   1.0000   1.0000   1.0000
    -0.0000  -0.0000  -0.0000  -0.0000  -0.0000  -0.0000  -0.0000  -0.0000
    -0.0000  -0.0000  -0.0000  -0.0000  -0.0000  -0.0000

          k = 0.0000-0.5000 0.0000 (  5380 PWs)   bands (ev):

   -79.3833 -79.3833 -79.3833 -79.3833 -46.2211 -46.2211 -46.2211 -46.2211
   -32.7568 -32.7568 -32.7568 -32.7568 -32.6187 -32.6187 -32.6187 -32.6187
    -6.2802  -6.2802  -6.2802  -6.2802  -5.2633  -5.2633  -5.2633  -5.2633
     5.6295   5.6295   5.6295   5.6295   6.2399   6.2399   6.2399   6.2399
     7.2635   7.2635   7.2635   7.2635   7.8915   7.8915   7.8915   7.8915
     8.7705   8.7705   8.7705   8.7705  10.8283  10.8283  10.8283  10.8283
    12.1239  12.1239  12.1239  12.1239  12.5042  12.5042  12.5042  12.5042
    13.6372  13.6372  13.6372  13.6372  17.2192  17.2192  17.2192  17.2192
    17.5175  17.5175  17.5175  17.5175  20.7717  20.7717

     occupation numbers 
     1.0000   1.0000   1.0000   1.0000   1.0000   1.0000   1.0000   1.0000
     1.0000   1.0000   1.0000   1.0000   1.0000   1.0000   1.0000   1.0000
     1.0000   1.0000   1.0000   1.0000   1.0000   1.0000   1.0000   1.0000
     1.0000   1.0000   1.0000   1.0000   1.0000   1.0000   1.0000   1.0000
     1.0000   1.0000   1.0000   1.0000   1.0000   1.0000   1.0000   1.0000
     1.0000   1.0000   1.0000   1.0000   1.0000   1.0000   1.0000   1.0000
     1.0000   1.0000   1.0000   1.0000   1.0000   1.0000   1.0000   1.0000
     1.0000   1.0000   1.0000   1.0000  -0.0000  -0.0000  -0.0000  -0.0000
    -0.0000  -0.0000  -0.0000  -0.0000  -0.0000  -0.0000

          k = 0.0000-0.5000 0.1781 (  5376 PWs)   bands (ev):

   -79.3830 -79.3830 -79.3830 -79.3830 -46.2231 -46.2231 -46.2224 -46.2224
   -32.7698 -32.7698 -32.7568 -32.7568 -32.6270 -32.6270 -32.6182 -32.6182
    -6.1837  -6.1837  -6.1550  -6.1550  -5.3370  -5.3370  -5.3073  -5.3073
     5.7613   5.7613   5.8695   5.8695   6.1610   6.1610   6.1746   6.1746
     7.4955   7.4955   7.5561   7.5561   7.6739   7.6739   7.6761   7.6761
     8.4695   8.4695   8.5828   8.5828  10.8200  10.8200  10.8419  10.8419
    12.0519  12.0519  12.0760  12.0760  12.6919  12.6919  12.8307  12.8307
    13.5026  13.5026  13.7492  13.7492  16.6119  16.6119  16.8143  16.8143
    17.5516  17.5516  17.6022  17.6022  21.1742  21.1846

     occupation numbers 
     1.0000   1.0000   1.0000   1.0000   1.0000   1.0000   1.0000   1.0000
     1.0000   1.0000   1.0000   1.0000   1.0000   1.0000   1.0000   1.0000
     1.0000   1.0000   1.0000   1.0000   1.0000   1.0000   1.0000   1.0000
     1.0000   1.0000   1.0000   1.0000   1.0000   1.0000   1.0000   1.0000
     1.0000   1.0000   1.0000   1.0000   1.0000   1.0000   1.0000   1.0000
     1.0000   1.0000   1.0000   1.0000   1.0000   1.0000   1.0000   1.0000
     1.0000   1.0000   1.0000   1.0000   1.0000   1.0000   1.0000   1.0000
     1.0000   1.0000   1.0130   1.0130  -0.0000  -0.0000  -0.0000  -0.0000
    -0.0000  -0.0000  -0.0000  -0.0000  -0.0000  -0.0000

          k = 0.0000-0.5000 0.3562 (  5390 PWs)   bands (ev):

   -79.3822 -79.3822 -79.3822 -79.3822 -46.2274 -46.2274 -46.2260 -46.2260
   -32.7937 -32.7937 -32.7701 -32.7701 -32.6370 -32.6370 -32.6211 -32.6211
    -5.9357  -5.9357  -5.9040  -5.9040  -5.4710  -5.4710  -5.3924  -5.3924
     5.9738   5.9738   6.0314   6.0314   6.4526   6.4526   6.5494   6.5494
     6.6660   6.6660   6.7208   6.7208   8.0826   8.0826   8.0846   8.0846
     8.7580   8.7580   8.7598   8.7598  10.4273  10.4273  10.4489  10.4489
    12.0226  12.0226  12.0925  12.0925  12.6504  12.6504  12.9137  12.9137
    13.5821  13.5821  14.0159  14.0159  15.7585  15.7585  15.8794  15.8794
    17.7794  17.7794  17.8636  17.8636  21.9724  21.9736

     occupation numbers 
     1.0000   1.0000   1.0000   1.0000   1.0000   1.0000   1.0000   1.0000
     1.0000   1.0000   1.0000   1.0000   1.0000   1.0000   1.0000   1.0000
     1.0000   1.0000   1.0000   1.0000   1.0000   1.0000   1.0000   1.0000
     1.0000   1.0000   1.0000   1.0000   1.0000   1.0000   1.0000   1.0000
     1.0000   1.0000   1.0000   1.0000   1.0000   1.0000   1.0000   1.0000
     1.0000   1.0000   1.0000   1.0000   1.0000   1.0000   1.0000   1.0000
     1.0000   1.0000   1.0000   1.0000   1.0000   1.0000   1.0000   1.0000
     1.0000   1.0000  -0.0061  -0.0061  -0.0000  -0.0000  -0.0000  -0.0000
    -0.0000  -0.0000  -0.0000  -0.0000  -0.0000  -0.0000

          k = 0.0000-0.5000 0.5343 (  5370 PWs)   bands (ev):

   -79.3813 -79.3813 -79.3813 -79.3813 -46.2316 -46.2316 -46.2298 -46.2298
   -32.8185 -32.8185 -32.7892 -32.7892 -32.6415 -32.6415 -32.6223 -32.6223
    -5.8069  -5.8069  -5.8046  -5.8046  -5.4584  -5.4584  -5.3082  -5.3082
     5.7507   5.7507   5.7850   5.7850   6.1589   6.1589   6.1755   6.1755
     7.1495   7.1495   7.4663   7.4663   8.4167   8.4167   8.4330   8.4330
     8.9409   8.9409   9.0607   9.0607  10.2850  10.2850  10.3307  10.3307
    11.5296  11.5296  11.5582  11.5582  12.2167  12.2167  12.5220  12.5220
    13.9849  13.9849  14.3743  14.3743  15.2059  15.2059  15.2208  15.2208
    18.0780  18.0780  18.2284  18.2284  22.7624  22.7667

     occupation numbers 
     1.0000   1.0000   1.0000   1.0000   1.0000   1.0000   1.0000   1.0000
     1.0000   1.0000   1.0000   1.0000   1.0000   1.0000   1.0000   1.0000
     1.0000   1.0000   1.0000   1.0000   1.0000   1.0000   1.0000   1.0000
     1.0000   1.0000   1.0000   1.0000   1.0000   1.0000   1.0000   1.0000
     1.0000   1.0000   1.0000   1.0000   1.0000   1.0000   1.0000   1.0000
     1.0000   1.0000   1.0000   1.0000   1.0000   1.0000   1.0000   1.0000
     1.0000   1.0000   1.0000   1.0000   1.0000   1.0000   1.0000   1.0000
    -0.0219  -0.0219  -0.0000  -0.0000  -0.0000  -0.0000  -0.0000  -0.0000
    -0.0000  -0.0000  -0.0000  -0.0000  -0.0000  -0.0000

          k = 0.0000-0.5000-0.7124 (  5360 PWs)   bands (ev):

   -79.3810 -79.3810 -79.3810 -79.3810 -46.2333 -46.2333 -46.2313 -46.2313
   -32.8291 -32.8291 -32.7982 -32.7982 -32.6423 -32.6423 -32.6223 -32.6223
    -5.8258  -5.8258  -5.8254  -5.8254  -5.3701  -5.3701  -5.2075  -5.2075
[...]
     1.0000   1.0000   1.0000   1.0000   1.0000   1.0000   1.0000   1.0000
     1.0000   1.0000   1.0000   1.0000  -0.0000  -0.0000  -0.0000  -0.0000
    -0.0000  -0.0000  -0.0000  -0.0000  -0.0000  -0.0000

          k = 0.4000-0.5000 0.5343 (  5362 PWs)   bands (ev):

   -79.3813 -79.3813 -79.3813 -79.3813 -46.2310 -46.2310 -46.2304 -46.2304
   -32.8086 -32.8086 -32.7995 -32.7995 -32.6351 -32.6351 -32.6292 -32.6292
    -5.7487  -5.7487  -5.7365  -5.7365  -5.4560  -5.4560  -5.3975  -5.3975
     5.5304   5.5304   5.5305   5.5305   6.1260   6.1260   6.2304   6.2304
     6.9678   6.9678   7.0344   7.0344   8.4340   8.4340   8.4943   8.4943
     9.4487   9.4487   9.4554   9.4554  10.4021  10.4021  10.4135  10.4135
    11.9863  11.9863  11.9872  11.9872  12.5187  12.5187  12.7556  12.7556
    13.3561  13.3561  13.6091  13.6091  16.0545  16.0545  16.0773  16.0773
    17.2133  17.2133  17.2432  17.2432  22.9756  22.9945

     occupation numbers 
     1.0000   1.0000   1.0000   1.0000   1.0000   1.0000   1.0000   1.0000
     1.0000   1.0000   1.0000   1.0000   1.0000   1.0000   1.0000   1.0000
     1.0000   1.0000   1.0000   1.0000   1.0000   1.0000   1.0000   1.0000
     1.0000   1.0000   1.0000   1.0000   1.0000   1.0000   1.0000   1.0000
     1.0000   1.0000   1.0000   1.0000   1.0000   1.0000   1.0000   1.0000
     1.0000   1.0000   1.0000   1.0000   1.0000   1.0000   1.0000   1.0000
     1.0000   1.0000   1.0000   1.0000   1.0000   1.0000   1.0000   1.0000
     1.0000   1.0000   1.0000   1.0000  -0.0000  -0.0000  -0.0000  -0.0000
    -0.0000  -0.0000  -0.0000  -0.0000  -0.0000  -0.0000

          k = 0.4000-0.5000-0.7124 (  5368 PWs)   bands (ev):

   -79.3810 -79.3810 -79.3810 -79.3810 -46.2326 -46.2326 -46.2320 -46.2320
   -32.8183 -32.8183 -32.8087 -32.8087 -32.6360 -32.6360 -32.6298 -32.6298
    -5.6793  -5.6793  -5.6359  -5.6359  -5.4974  -5.4974  -5.4034  -5.4034
     5.7010   5.7010   5.7743   5.7743   6.0425   6.0425   6.2670   6.2670
     6.7666   6.7666   6.8823   6.8823   8.2221   8.2221   8.3007   8.3007
     9.6301   9.6301   9.6334   9.6334  10.6337  10.6337  10.6403  10.6403
    11.8983  11.8983  11.9347  11.9347  12.3293  12.3293  12.5922  12.5922
    13.4743  13.4743  13.7184  13.7184  15.8808  15.8808  15.8816  15.8816
    17.2144  17.2144  17.2646  17.2646  23.0913  23.0931

     occupation numbers 
     1.0000   1.0000   1.0000   1.0000   1.0000   1.0000   1.0000   1.0000
     1.0000   1.0000   1.0000   1.0000   1.0000   1.0000   1.0000   1.0000
     1.0000   1.0000   1.0000   1.0000   1.0000   1.0000   1.0000   1.0000
     1.0000   1.0000   1.0000   1.0000   1.0000   1.0000   1.0000   1.0000
     1.0000   1.0000   1.0000   1.0000   1.0000   1.0000   1.0000   1.0000
     1.0000   1.0000   1.0000   1.0000   1.0000   1.0000   1.0000   1.0000
     1.0000   1.0000   1.0000   1.0000   1.0000   1.0000   1.0000   1.0000
     1.0000   1.0000   1.0028   1.0028  -0.0000  -0.0000  -0.0000  -0.0000
    -0.0000  -0.0000  -0.0000  -0.0000  -0.0000  -0.0000

          k =-0.5000-0.5000 0.0000 (  5412 PWs)   bands (ev):

   -79.3833 -79.3833 -79.3833 -79.3833 -46.2211 -46.2211 -46.2211 -46.2211
   -32.7596 -32.7596 -32.7596 -32.7596 -32.6163 -32.6163 -32.6163 -32.6163
    -6.4118  -6.4118  -6.4118  -6.4118  -5.0359  -5.0359  -5.0359  -5.0359
     4.4000   4.4000   4.4000   4.4000   6.0118   6.0118   6.0118   6.0118
     8.7366   8.7366   8.7366   8.7366   8.7785   8.7785   8.7785   8.7785
     9.5948   9.5948   9.5948   9.5948  10.3605  10.3605  10.3605  10.3605
    11.1214  11.1214  11.1214  11.1214  11.7468  11.7468  11.7468  11.7468
    14.0531  14.0531  14.0531  14.0531  16.2368  16.2368  16.2368  16.2368
    17.9271  17.9271  17.9271  17.9271  22.3953  22.8039

     occupation numbers 
     1.0000   1.0000   1.0000   1.0000   1.0000   1.0000   1.0000   1.0000
     1.0000   1.0000   1.0000   1.0000   1.0000   1.0000   1.0000   1.0000
     1.0000   1.0000   1.0000   1.0000   1.0000   1.0000   1.0000   1.0000
     1.0000   1.0000   1.0000   1.0000   1.0000   1.0000   1.0000   1.0000
     1.0000   1.0000   1.0000   1.0000   1.0000   1.0000   1.0000   1.0000
     1.0000   1.0000   1.0000   1.0000   1.0000   1.0000   1.0000   1.0000
     1.0000   1.0000   1.0000   1.0000   1.0000   1.0000   1.0000   1.0000
    -0.0006  -0.0006  -0.0006  -0.0006  -0.0000  -0.0000  -0.0000  -0.0000
    -0.0000  -0.0000  -0.0000  -0.0000  -0.0000  -0.0000

          k =-0.5000-0.5000 0.1781 (  5404 PWs)   bands (ev):

   -79.3830 -79.3830 -79.3830 -79.3830 -46.2228 -46.2228 -46.2228 -46.2228
   -32.7656 -32.7656 -32.7656 -32.7656 -32.6207 -32.6207 -32.6207 -32.6207
    -6.2997  -6.2997  -6.2997  -6.2997  -5.1077  -5.1077  -5.1077  -5.1077
     4.5654   4.5654   4.5654   4.5654   6.0141   6.0141   6.0141   6.0141
     8.7621   8.7621   8.7621   8.7621   8.9551   8.9551   8.9551   8.9551
     9.0727   9.0727   9.0727   9.0727   9.9114   9.9114   9.9114   9.9114
    11.5394  11.5394  11.5394  11.5394  12.1247  12.1247  12.1247  12.1247
    13.8865  13.8865  13.8865  13.8865  16.4386  16.4386  16.4386  16.4386
    17.5725  17.5725  17.5725  17.5725  22.6524  22.6524

     occupation numbers 
     1.0000   1.0000   1.0000   1.0000   1.0000   1.0000   1.0000   1.0000
     1.0000   1.0000   1.0000   1.0000   1.0000   1.0000   1.0000   1.0000
     1.0000   1.0000   1.0000   1.0000   1.0000   1.0000   1.0000   1.0000
     1.0000   1.0000   1.0000   1.0000   1.0000   1.0000   1.0000   1.0000
     1.0000   1.0000   1.0000   1.0000   1.0000   1.0000   1.0000   1.0000
     1.0000   1.0000   1.0000   1.0000   1.0000   1.0000   1.0000   1.0000
     1.0000   1.0000   1.0000   1.0000   1.0000   1.0000   1.0000   1.0000
     0.3507   0.3507   0.3507   0.3507  -0.0000  -0.0000  -0.0000  -0.0000
    -0.0000  -0.0000  -0.0000  -0.0000  -0.0000  -0.0000

          k =-0.5000-0.5000 0.3562 (  5388 PWs)   bands (ev):

   -79.3822 -79.3822 -79.3822 -79.3822 -46.2267 -46.2267 -46.2267 -46.2267
   -32.7832 -32.7832 -32.7832 -32.7832 -32.6282 -32.6282 -32.6282 -32.6282
    -6.0216  -6.0216  -6.0216  -6.0216  -5.2755  -5.2755  -5.2755  -5.2755
     5.0010   5.0010   5.0010   5.0010   6.0671   6.0671   6.0671   6.0671
     7.8341   7.8341   7.8341   7.8341   8.9028   8.9028   8.9028   8.9028
     9.1846   9.1846   9.1846   9.1846   9.8922   9.8922   9.8922   9.8922
    11.9068  11.9068  11.9068  11.9068  12.6915  12.6915  12.6915  12.6915
    13.4789  13.4789  13.4789  13.4789  16.6064  16.6064  16.6064  16.6064
    17.0696  17.0696  17.0696  17.0696  22.9386  22.9386

     occupation numbers 
     1.0000   1.0000   1.0000   1.0000   1.0000   1.0000   1.0000   1.0000
     1.0000   1.0000   1.0000   1.0000   1.0000   1.0000   1.0000   1.0000
     1.0000   1.0000   1.0000   1.0000   1.0000   1.0000   1.0000   1.0000
     1.0000   1.0000   1.0000   1.0000   1.0000   1.0000   1.0000   1.0000
     1.0000   1.0000   1.0000   1.0000   1.0000   1.0000   1.0000   1.0000
     1.0000   1.0000   1.0000   1.0000   1.0000   1.0000   1.0000   1.0000
     1.0000   1.0000   1.0000   1.0000   1.0000   1.0000   1.0000   1.0000
     1.0000   1.0000   1.0000   1.0000  -0.0000  -0.0000  -0.0000  -0.0000
    -0.0000  -0.0000  -0.0000  -0.0000  -0.0000  -0.0000

          k =-0.5000-0.5000 0.5343 (  5360 PWs)   bands (ev):

   -79.3813 -79.3813 -79.3813 -79.3813 -46.2307 -46.2307 -46.2307 -46.2307
   -32.8041 -32.8041 -32.8041 -32.8041 -32.6321 -32.6321 -32.6321 -32.6321
    -5.7356  -5.7356  -5.7356  -5.7356  -5.4316  -5.4316  -5.4316  -5.4316
     5.5034   5.5034   5.5034   5.5034   6.1801   6.1801   6.1801   6.1801
     6.9831   6.9831   6.9831   6.9831   8.4595   8.4595   8.4595   8.4595
     9.4886   9.4886   9.4886   9.4886  10.4344  10.4344  10.4344  10.4344
    11.9741  11.9741  11.9741  11.9741  12.8010  12.8010  12.8010  12.8010
    13.3280  13.3280  13.3280  13.3280  16.2327  16.2327  16.2327  16.2327
    17.0522  17.0522  17.0522  17.0522  23.0935  23.0935

     occupation numbers 
     1.0000   1.0000   1.0000   1.0000   1.0000   1.0000   1.0000   1.0000
     1.0000   1.0000   1.0000   1.0000   1.0000   1.0000   1.0000   1.0000
     1.0000   1.0000   1.0000   1.0000   1.0000   1.0000   1.0000   1.0000
     1.0000   1.0000   1.0000   1.0000   1.0000   1.0000   1.0000   1.0000
     1.0000   1.0000   1.0000   1.0000   1.0000   1.0000   1.0000   1.0000
     1.0000   1.0000   1.0000   1.0000   1.0000   1.0000   1.0000   1.0000
     1.0000   1.0000   1.0000   1.0000   1.0000   1.0000   1.0000   1.0000
     1.0000   1.0000   1.0000   1.0000  -0.0000  -0.0000  -0.0000  -0.0000
    -0.0000  -0.0000  -0.0000  -0.0000  -0.0000  -0.0000

          k =-0.5000-0.5000-0.7124 (  5384 PWs)   bands (ev):

   -79.3810 -79.3810 -79.3810 -79.3810 -46.2323 -46.2323 -46.2323 -46.2323
   -32.8135 -32.8135 -32.8135 -32.8135 -32.6329 -32.6329 -32.6329 -32.6329
    -5.6272  -5.6272  -5.6272  -5.6272  -5.4802  -5.4802  -5.4802  -5.4802
     5.7406   5.7406   5.7406   5.7406   6.2403   6.2403   6.2403   6.2403
     6.6659   6.6659   6.6659   6.6659   8.2643   8.2643   8.2643   8.2643
     9.6579   9.6579   9.6579   9.6579  10.6687  10.6687  10.6687  10.6687
    11.9394  11.9394  11.9394  11.9394  12.6159  12.6159  12.6159  12.6159
    13.4501  13.4501  13.4501  13.4501  16.0749  16.0749  16.0749  16.0749
    17.0248  17.0248  17.0248  17.0248  23.0646  23.0646

     occupation numbers 
     1.0000   1.0000   1.0000   1.0000   1.0000   1.0000   1.0000   1.0000
     1.0000   1.0000   1.0000   1.0000   1.0000   1.0000   1.0000   1.0000
     1.0000   1.0000   1.0000   1.0000   1.0000   1.0000   1.0000   1.0000
     1.0000   1.0000   1.0000   1.0000   1.0000   1.0000   1.0000   1.0000
     1.0000   1.0000   1.0000   1.0000   1.0000   1.0000   1.0000   1.0000
     1.0000   1.0000   1.0000   1.0000   1.0000   1.0000   1.0000   1.0000
     1.0000   1.0000   1.0000   1.0000   1.0000   1.0000   1.0000   1.0000
     1.0000   1.0000   1.0000   1.0000  -0.0000  -0.0000  -0.0000  -0.0000
    -0.0000  -0.0000  -0.0000  -0.0000  -0.0000  -0.0000

     the Fermi energy is    13.8743 ev

!    total energy              =    -553.08030247 Ry
     estimated scf accuracy    <          1.5E-11 Ry
     smearing contrib. (-TS)   =       0.00002181 Ry
     internal energy E=F+TS    =    -553.08032428 Ry

     The total energy is F=E-TS. E is the sum of the following terms:
     one-electron contribution =    -190.91086305 Ry
     hartree contribution      =     122.73111966 Ry
     xc contribution           =     -69.91457037 Ry
     ewald contribution        =    -414.98601052 Ry

     convergence has been achieved in  10 iterations

     Forces acting on atoms (cartesian axes, Ry/au):

     atom    1 type  2   force =     0.00000000    0.00000000    0.00000000
     atom    2 type  2   force =     0.00000000    0.00000000    0.00000000
     atom    3 type  1   force =     0.00074749   -0.00074749   -0.00000000
     atom    4 type  1   force =    -0.00074749   -0.00074749    0.00000000
     atom    5 type  1   force =     0.00074749    0.00074749    0.00000000
     atom    6 type  1   force =    -0.00074749    0.00074749   -0.00000000
     The non-local contrib.  to forces
     atom    1 type  2   force =     0.00000000    0.00000000    0.00000000
     atom    2 type  2   force =     0.00000000    0.00000000   -0.00000000
     atom    3 type  1   force =    -0.05379331    0.05379331   -0.00000000
     atom    4 type  1   force =     0.05379331    0.05379331    0.00000000
     atom    5 type  1   force =    -0.05379331   -0.05379331    0.00000000
     atom    6 type  1   force =     0.05379331   -0.05379331   -0.00000000
     The ionic contribution  to forces
     atom    1 type  2   force =    -0.00000000   -0.00000000    0.00000000
     atom    2 type  2   force =     0.00000000    0.00000000   -0.00000000
     atom    3 type  1   force =     1.42937233   -1.42937233    0.00000000
     atom    4 type  1   force =    -1.42937233   -1.42937233   -0.00000000
     atom    5 type  1   force =     1.42937233    1.42937233    0.00000000
     atom    6 type  1   force =    -1.42937233    1.42937233    0.00000000
     The local contribution  to forces
     atom    1 type  2   force =     0.00000000   -0.00000000    0.00000000
     atom    2 type  2   force =     0.00000000    0.00000000    0.00000000
     atom    3 type  1   force =    -1.37483108    1.37483108    0.00000000
     atom    4 type  1   force =     1.37483108    1.37483108    0.00000000
     atom    5 type  1   force =    -1.37483108   -1.37483108    0.00000000
     atom    6 type  1   force =     1.37483108   -1.37483108    0.00000000
     The core correction contribution to forces
     atom    1 type  2   force =     0.00000000    0.00000000    0.00000000
     atom    2 type  2   force =     0.00000000    0.00000000    0.00000000
     atom    3 type  1   force =     0.00000000    0.00000000    0.00000000
     atom    4 type  1   force =     0.00000000    0.00000000    0.00000000
     atom    5 type  1   force =     0.00000000    0.00000000    0.00000000
     atom    6 type  1   force =     0.00000000    0.00000000    0.00000000
     The Hubbard contrib.    to forces
     atom    1 type  2   force =     0.00000000    0.00000000    0.00000000
     atom    2 type  2   force =     0.00000000    0.00000000    0.00000000
     atom    3 type  1   force =     0.00000000    0.00000000    0.00000000
     atom    4 type  1   force =     0.00000000    0.00000000    0.00000000
     atom    5 type  1   force =     0.00000000    0.00000000    0.00000000
     atom    6 type  1   force =     0.00000000    0.00000000    0.00000000
     The SCF correction term to forces
     atom    1 type  2   force =     0.00000000   -0.00000000    0.00000000
     atom    2 type  2   force =     0.00000000    0.00000000   -0.00000000
     atom    3 type  1   force =    -0.00000045    0.00000045   -0.00000000
     atom    4 type  1   force =     0.00000045    0.00000045    0.00000000
     atom    5 type  1   force =    -0.00000045   -0.00000045    0.00000000
     atom    6 type  1   force =     0.00000045   -0.00000045   -0.00000000

     Total force =     0.002114     Total SCF correction =     0.000001


     Computing stress (Cartesian axis) and pressure

          total   stress  (Ry/bohr**3)                   (kbar)     P=      -20.67
  -0.00012252   0.00000000   0.00000000          -18.02        0.00        0.00
   0.00000000  -0.00012252   0.00000000            0.00      -18.02        0.00
   0.00000000   0.00000000  -0.00017649            0.00        0.00      -25.96

     kinetic stress (kbar)  48454.41      0.00      0.00
                                0.00  48454.41      0.00
                                0.00      0.00  47525.36

     local   stress (kbar) -12686.45      0.00     -0.00
                                0.00 -12686.45     -0.00
                               -0.00     -0.00 -44400.22

     nonloc. stress (kbar)  14527.66      0.00      0.00
                                0.00  14527.66      0.00
                                0.00      0.00  14741.12

     hartree stress (kbar)   9610.74     -0.00      0.00
                               -0.00   9610.74     -0.00
                                0.00     -0.00  21378.71

     exc-cor stress (kbar)  -7288.18     -0.00     -0.00
                               -0.00  -7288.18     -0.00
                               -0.00     -0.00  -7263.47

     corecor stress (kbar)      0.00      0.00      0.00
                                0.00      0.00      0.00
                                0.00      0.00      0.00

     ewald   stress (kbar) -52636.21     -0.00     -0.00
                               -0.00 -52636.21     -0.00
                               -0.00     -0.00 -32007.45

     hubbard stress (kbar)      0.00      0.00      0.00
                                0.00      0.00      0.00
                                0.00      0.00      0.00

     DFT-D   stress (kbar)      0.00      0.00      0.00
                                0.00      0.00      0.00
                                0.00      0.00      0.00

     XDM     stress (kbar)      0.00      0.00      0.00
                                0.00      0.00      0.00
                                0.00      0.00      0.00

     dft-nl  stress (kbar)      0.00      0.00      0.00
                                0.00      0.00      0.00
                                0.00      0.00      0.00

     TS-vdW  stress (kbar)      0.00      0.00      0.00
                                0.00      0.00      0.00
                                0.00      0.00      0.00


                                0.00      0.00      0.00
                                0.00      0.00      0.00


                                0.00      0.00      0.00


     Writing all to output data dir tmp/espresso.save/
 
     init_run     :     10.52s CPU      5.43s WALL (       1 calls)
     electrons    :    359.17s CPU    183.94s WALL (       1 calls)
     forces       :     18.68s CPU      9.57s WALL (       1 calls)
     stress       :     26.46s CPU     13.36s WALL (       1 calls)

     Called by init_run:
     wfcinit      :     10.45s CPU      5.37s WALL (       1 calls)
     wfcinit:atom :      0.04s CPU      0.02s WALL (     105 calls)
     wfcinit:wfcr :     10.16s CPU      5.21s WALL (     105 calls)
     potinit      :      0.02s CPU      0.01s WALL (       1 calls)
     hinit0       :      0.03s CPU      0.03s WALL (       1 calls)

     Called by electrons:
     c_bands      :    329.45s CPU    168.64s WALL (      10 calls)
     sum_band     :     29.56s CPU     15.20s WALL (      10 calls)
     v_of_rho     :      0.05s CPU      0.03s WALL (      11 calls)
     v_h          :      0.01s CPU      0.00s WALL (      11 calls)
     v_xc         :      0.04s CPU      0.02s WALL (      11 calls)
     mix_rho      :      0.05s CPU      0.02s WALL (      10 calls)

     Called by c_bands:
     init_us_2    :      0.91s CPU      0.48s WALL (    2415 calls)
     init_us_2:cp :      0.89s CPU      0.47s WALL (    2415 calls)
     cegterg      :    303.72s CPU    155.50s WALL (    1050 calls)

     Called by sum_band:
     sum_band:wei :      0.17s CPU      0.09s WALL (      10 calls)
     sum_band:loo :     29.36s CPU     15.10s WALL (      10 calls)
     sum_band:buf :      0.15s CPU      0.08s WALL (    1050 calls)
     sum_band:ini :      0.30s CPU      0.15s WALL (    1050 calls)

     Called by *egterg:
     cdiaghg      :     45.45s CPU     23.09s WALL (    3678 calls)
     cegterg:over :     18.52s CPU      9.42s WALL (    2628 calls)
     cegterg:upda :     14.95s CPU      7.60s WALL (    2628 calls)
     cegterg:last :     26.16s CPU     13.29s WALL (    2100 calls)
     cdiaghg:chol :      2.13s CPU      1.08s WALL (    3678 calls)
     cdiaghg:inve :      0.33s CPU      0.17s WALL (    3678 calls)
     cdiaghg:para :      4.74s CPU      2.42s WALL (    7356 calls)
     h_psi        :    201.13s CPU    103.41s WALL (    3783 calls)
     g_psi        :      0.30s CPU      0.15s WALL (    2628 calls)

     Called by h_psi:
     h_psi:calbec :     24.25s CPU     12.68s WALL (    3783 calls)
     vloc_psi     :    141.12s CPU     72.53s WALL (    3783 calls)
     add_vuspsi   :     35.31s CPU     17.97s WALL (    3783 calls)

     General routines
     calbec       :     31.30s CPU     16.33s WALL (    4308 calls)
     fft          :      0.06s CPU      0.03s WALL (     150 calls)
     ffts         :      0.01s CPU      0.01s WALL (      40 calls)
     fftw         :    159.67s CPU     82.09s WALL (  904640 calls)
 
     Parallel routines
 
     PWSCF        :   7m 8.03s CPU   3m44.68s WALL

 
   This run was terminated on:  11: 8:50  10Apr2022            

=------------------------------------------------------------------------------=
   JOB DONE.
=------------------------------------------------------------------------------=
