
     Program PWSCF v.7.0 starts on 10Apr2022 at 10:23:45 

     This program is part of the open-source Quantum ESPRESSO suite
     for quantum simulation of materials; please cite
         "P. Giannozzi et al., J. Phys.:Condens. Matter 21 395502 (2009);
         "P. Giannozzi et al., J. Phys.:Condens. Matter 29 465901 (2017);
         "P. Giannozzi et al., J. Chem. Phys. 152 154105 (2020);
          URL http://www.quantum-espresso.org", 
     in publications or presentations arising from this work. More details at
     http://www.quantum-espresso.org/quote

     Parallel version (MPI & OpenMP), running on      64 processor cores
     Number of MPI processes:                32
     Threads/MPI process:                     2

     MPI processes distributed on     1 nodes
     R & G space division:  proc/nbgrp/npool/nimage =      32
     230903 MiB available memory on the printing compute node when the environment starts
 
     Reading input from kpoints_666.pwi
Warning: card &CELL ignored
Warning: card / ignored

     Current dimensions of program PWSCF are:
     Max number of different atomic species (ntypx) = 10
     Max number of k-points (npk) =  40000
     Max angular momentum in pseudopotentials (lmaxx) =  4

     Subspace diagonalization in iterative solution of the eigenvalue problem:
     one sub-group per band group will be used
     scalapack distributed-memory algorithm (size of sub-group:  5*  5 procs)

 
     Parallelization info
     --------------------
     sticks:   dense  smooth     PW     G-vecs:    dense   smooth      PW
     Min          58      58     17                 1342     1342     211
     Max          59      59     18                 1345     1345     214
     Sum        1885    1885    553                42999    42999    6811
 
     Using Slab Decomposition
 

     Title: 
     IrO2 Unit Cell                                                             


     bravais-lattice index     =            6
     lattice parameter (alat)  =       8.5888  a.u.
     unit-cell volume          =     444.6868 (a.u.)^3
     number of atoms/cell      =            6
     number of atomic types    =            2
     number of electrons       =        58.00
     number of Kohn-Sham states=           70
     kinetic-energy cutoff     =      80.0000  Ry
     charge density cutoff     =     320.0000  Ry
     scf convergence threshold =      1.0E-09
     mixing beta               =       0.7000
     number of iterations used =            8  plain     mixing
     Exchange-correlation= PBE
                           (   1   4   3   4   0   0   0)
     Non magnetic calculation with spin-orbit


     celldm(1)=   8.588800  celldm(2)=   0.000000  celldm(3)=   0.701870
     celldm(4)=   0.000000  celldm(5)=   0.000000  celldm(6)=   0.000000

     crystal axes: (cart. coord. in units of alat)
               a(1) = (   1.000000   0.000000   0.000000 )  
               a(2) = (   0.000000   1.000000   0.000000 )  
               a(3) = (   0.000000   0.000000   0.701870 )  

     reciprocal axes: (cart. coord. in units 2 pi/alat)
               b(1) = (  1.000000  0.000000  0.000000 )  
               b(2) = (  0.000000  1.000000  0.000000 )  
               b(3) = (  0.000000  0.000000  1.424765 )  


     PseudoPot. # 1 for O  read from file:
     ../../XX_PSEUDO/O_ONCV_PBE_fr.upf
     MD5 check sum: 59c925217d3b58c6d762355590b68b09
     Pseudo is Norm-conserving, Zval =  6.0
     Generated using ONCVPSP code by D. R. Hamann
     Using radial grid of  936 points,  6 beta functions with: 
                l(1) =   0
                l(2) =   0
                l(3) =   1
                l(4) =   1
                l(5) =   1
                l(6) =   1

     PseudoPot. # 2 for Ir read from file:
     ../../XX_PSEUDO/Ir_ONCV_PBE_fr.upf
     MD5 check sum: 924e909c4146afa09f62ee3401806954
     Pseudo is Norm-conserving, Zval = 17.0
     Generated using ONCVPSP code by D. R. Hamann
     Using radial grid of 1310 points, 14 beta functions with: 
                l(1) =   0
                l(2) =   0
                l(3) =   1
                l(4) =   1
                l(5) =   1
                l(6) =   1
                l(7) =   2
                l(8) =   2
                l(9) =   2
               l(10) =   2
               l(11) =   3
               l(12) =   3
               l(13) =   3
               l(14) =   3

     atomic species   valence    mass     pseudopotential
        O              6.00    15.99900     O ( 1.00)
        Ir            17.00   192.21700     Ir( 1.00)

     16 Sym. Ops., with inversion, found ( 8 have fractional translation)


                                    s                        frac. trans.

      isym =  1     identity                                     

 cryst.   s( 1) = (     1          0          0      )
                  (     0          1          0      )
                  (     0          0          1      )

 cart.    s( 1) = (  1.0000000  0.0000000  0.0000000 )
                  (  0.0000000  1.0000000  0.0000000 )
                  (  0.0000000  0.0000000  1.0000000 )


      isym =  2     180 deg rotation - cart. axis [0,0,1]        

 cryst.   s( 2) = (    -1          0          0      )
                  (     0         -1          0      )
                  (     0          0          1      )

 cart.    s( 2) = ( -1.0000000  0.0000000  0.0000000 )
                  (  0.0000000 -1.0000000  0.0000000 )
                  (  0.0000000  0.0000000  1.0000000 )


      isym =  3     180 deg rotation - cart. axis [0,1,0]        

 cryst.   s( 3) = (    -1          0          0      )    f =(  0.5000000 )
                  (     0          1          0      )       ( -0.5000000 )
                  (     0          0         -1      )       (  0.5000000 )

 cart.    s( 3) = ( -1.0000000  0.0000000  0.0000000 )    f =(  0.5000000 )
                  (  0.0000000  1.0000000  0.0000000 )       ( -0.5000000 )
                  (  0.0000000  0.0000000 -1.0000000 )       (  0.3509351 )


      isym =  4     180 deg rotation - cart. axis [1,0,0]        

 cryst.   s( 4) = (     1          0          0      )    f =( -0.5000000 )
                  (     0         -1          0      )       (  0.5000000 )
                  (     0          0         -1      )       (  0.5000000 )

 cart.    s( 4) = (  1.0000000  0.0000000  0.0000000 )    f =( -0.5000000 )
                  (  0.0000000 -1.0000000  0.0000000 )       (  0.5000000 )
                  (  0.0000000  0.0000000 -1.0000000 )       (  0.3509351 )


      isym =  5     180 deg rotation - cart. axis [1,1,0]        

 cryst.   s( 5) = (     0          1          0      )
                  (     1          0          0      )
                  (     0          0         -1      )

 cart.    s( 5) = (  0.0000000  1.0000000  0.0000000 )
                  (  1.0000000  0.0000000  0.0000000 )
                  (  0.0000000  0.0000000 -1.0000000 )


      isym =  6     180 deg rotation - cart. axis [1,-1,0]       

 cryst.   s( 6) = (     0         -1          0      )
                  (    -1          0          0      )
                  (     0          0         -1      )

 cart.    s( 6) = (  0.0000000 -1.0000000  0.0000000 )
                  ( -1.0000000  0.0000000  0.0000000 )
                  (  0.0000000  0.0000000 -1.0000000 )


      isym =  7      90 deg rotation - cart. axis [0,0,-1]       

 cryst.   s( 7) = (     0         -1          0      )    f =( -0.5000000 )
                  (     1          0          0      )       (  0.5000000 )
                  (     0          0          1      )       ( -0.5000000 )

 cart.    s( 7) = (  0.0000000  1.0000000  0.0000000 )    f =( -0.5000000 )
                  ( -1.0000000  0.0000000  0.0000000 )       (  0.5000000 )
                  (  0.0000000  0.0000000  1.0000000 )       ( -0.3509351 )


      isym =  8      90 deg rotation - cart. axis [0,0,1]        

 cryst.   s( 8) = (     0          1          0      )    f =(  0.5000000 )
                  (    -1          0          0      )       ( -0.5000000 )
                  (     0          0          1      )       ( -0.5000000 )

 cart.    s( 8) = (  0.0000000 -1.0000000  0.0000000 )    f =(  0.5000000 )
                  (  1.0000000  0.0000000  0.0000000 )       ( -0.5000000 )
                  (  0.0000000  0.0000000  1.0000000 )       ( -0.3509351 )


      isym =  9     inversion                                    

 cryst.   s( 9) = (    -1          0          0      )
                  (     0         -1          0      )
                  (     0          0         -1      )

 cart.    s( 9) = ( -1.0000000  0.0000000  0.0000000 )
                  (  0.0000000 -1.0000000  0.0000000 )
                  (  0.0000000  0.0000000 -1.0000000 )


      isym = 10     inv. 180 deg rotation - cart. axis [0,0,1]   

 cryst.   s(10) = (     1          0          0      )
                  (     0          1          0      )
                  (     0          0         -1      )

 cart.    s(10) = (  1.0000000  0.0000000  0.0000000 )
                  (  0.0000000  1.0000000  0.0000000 )
                  (  0.0000000  0.0000000 -1.0000000 )


      isym = 11     inv. 180 deg rotation - cart. axis [0,1,0]   

 cryst.   s(11) = (     1          0          0      )    f =( -0.5000000 )
                  (     0         -1          0      )       (  0.5000000 )
                  (     0          0          1      )       ( -0.5000000 )

 cart.    s(11) = (  1.0000000  0.0000000  0.0000000 )    f =( -0.5000000 )
                  (  0.0000000 -1.0000000  0.0000000 )       (  0.5000000 )
                  (  0.0000000  0.0000000  1.0000000 )       ( -0.3509351 )


      isym = 12     inv. 180 deg rotation - cart. axis [1,0,0]   

 cryst.   s(12) = (    -1          0          0      )    f =(  0.5000000 )
                  (     0          1          0      )       ( -0.5000000 )
                  (     0          0          1      )       ( -0.5000000 )

 cart.    s(12) = ( -1.0000000  0.0000000  0.0000000 )    f =(  0.5000000 )
                  (  0.0000000  1.0000000  0.0000000 )       ( -0.5000000 )
                  (  0.0000000  0.0000000  1.0000000 )       ( -0.3509351 )


      isym = 13     inv. 180 deg rotation - cart. axis [1,1,0]   

 cryst.   s(13) = (     0         -1          0      )
                  (    -1          0          0      )
                  (     0          0          1      )

 cart.    s(13) = (  0.0000000 -1.0000000  0.0000000 )
                  ( -1.0000000  0.0000000  0.0000000 )
                  (  0.0000000  0.0000000  1.0000000 )


      isym = 14     inv. 180 deg rotation - cart. axis [1,-1,0]  

 cryst.   s(14) = (     0          1          0      )
                  (     1          0          0      )
                  (     0          0          1      )

 cart.    s(14) = (  0.0000000  1.0000000  0.0000000 )
                  (  1.0000000  0.0000000  0.0000000 )
                  (  0.0000000  0.0000000  1.0000000 )


      isym = 15     inv.  90 deg rotation - cart. axis [0,0,-1]  

 cryst.   s(15) = (     0          1          0      )    f =(  0.5000000 )
                  (    -1          0          0      )       ( -0.5000000 )
                  (     0          0         -1      )       (  0.5000000 )

 cart.    s(15) = (  0.0000000 -1.0000000  0.0000000 )    f =(  0.5000000 )
                  (  1.0000000  0.0000000  0.0000000 )       ( -0.5000000 )
                  (  0.0000000  0.0000000 -1.0000000 )       (  0.3509351 )


      isym = 16     inv.  90 deg rotation - cart. axis [0,0,1]   

 cryst.   s(16) = (     0         -1          0      )    f =( -0.5000000 )
                  (     1          0          0      )       (  0.5000000 )
                  (     0          0         -1      )       (  0.5000000 )

 cart.    s(16) = (  0.0000000  1.0000000  0.0000000 )    f =( -0.5000000 )
                  ( -1.0000000  0.0000000  0.0000000 )       (  0.5000000 )
                  (  0.0000000  0.0000000 -1.0000000 )       (  0.3509351 )


     double point group D_4h(4/mmm)
     there are 14 classes and  4 irreducible representations
     the character table:

       E     -E    2C4   -2C4   C2    2C2' 2C2'' i     -i    2S4   -2S4   s_h 
                               -C2   -2C2' -2C2'                         -s_h 
G_6+   2.00 -2.00  1.41 -1.41  0.00  0.00  0.00  2.00 -2.00  1.41 -1.41  0.00
G_7+   2.00 -2.00 -1.41  1.41  0.00  0.00  0.00  2.00 -2.00 -1.41  1.41  0.00
G_6-   2.00 -2.00  1.41 -1.41  0.00  0.00  0.00 -2.00  2.00 -1.41  1.41  0.00
G_7-   2.00 -2.00 -1.41  1.41  0.00  0.00  0.00 -2.00  2.00  1.41 -1.41  0.00

        2s_v  2s_d
       -2s_v -2s_d
G_6+   0.00  0.00
G_7+   0.00  0.00
G_6-   0.00  0.00
G_7-   0.00  0.00

     the symmetry operations in each class and the name of the first element:

     E             1
          identity                                               
     -E           -1
          identity E                                             
     2C4           7    8
           90 deg rotation - cart. axis [0,0,-1]                 
     -2C4         -7   -8
           90 deg rotation - cart. axis [0,0,-1] E               
      C2  -C2      2   -2
          180 deg rotation - cart. axis [0,0,1]                  
      2C2'-2C2'    3   -3    4   -4
          180 deg rotation - cart. axis [0,1,0]                  
     2C2''-2C2'    5   -5   -6    6
          180 deg rotation - cart. axis [1,1,0]                  
     i             9
          inversion                                              
     -i           -9
          inversion E                                            
     2S4          15   16
          inv.  90 deg rotation - cart. axis [0,0,-1]            
     -2S4        -15  -16
          inv.  90 deg rotation - cart. axis [0,0,-1] E          
      s_h -s_h    10  -10
          inv. 180 deg rotation - cart. axis [0,0,1]             
      2s_v-2s_v   11  -11   12  -12
          inv. 180 deg rotation - cart. axis [0,1,0]             
      2s_d-2s_d   13  -13  -14   14
          inv. 180 deg rotation - cart. axis [1,1,0]             

   Cartesian axes

     site n.     atom                  positions (alat units)
         1           Ir  tau(   1) = (   0.0000000   0.0000000   0.0000000  )
         2           Ir  tau(   2) = (   0.5000000   0.5000000   0.3509351  )
         3           O   tau(   3) = (   0.1916000   0.8084000   0.3509351  )
         4           O   tau(   4) = (   0.3084000   0.3084000   0.0000000  )
         5           O   tau(   5) = (   0.6916000   0.6916000   0.0000000  )
         6           O   tau(   6) = (   0.8084000   0.1916000   0.3509351  )

   Crystallographic axes

     site n.     atom                  positions (cryst. coord.)
         1           Ir  tau(   1) = (  0.0000000  0.0000000  0.0000000  )
         2           Ir  tau(   2) = (  0.5000000  0.5000000  0.5000000  )
         3           O   tau(   3) = (  0.1916000  0.8084000  0.5000000  )
         4           O   tau(   4) = (  0.3084000  0.3084000  0.0000000  )
         5           O   tau(   5) = (  0.6916000  0.6916000  0.0000000  )
         6           O   tau(   6) = (  0.8084000  0.1916000  0.5000000  )

     number of k points=    40  Methfessel-Paxton smearing, width (Ry)=  0.0050
                       cart. coord. in units 2pi/alat
        k(    1) = (   0.0000000   0.0000000   0.0000000), wk =   0.0046296
        k(    2) = (   0.0000000   0.0000000   0.2374608), wk =   0.0092593
        k(    3) = (   0.0000000   0.0000000   0.4749216), wk =   0.0092593
        k(    4) = (   0.0000000   0.0000000  -0.7123824), wk =   0.0046296
        k(    5) = (   0.0000000   0.1666667   0.0000000), wk =   0.0185185
        k(    6) = (   0.0000000   0.1666667   0.2374608), wk =   0.0370370
        k(    7) = (   0.0000000   0.1666667   0.4749216), wk =   0.0370370
        k(    8) = (   0.0000000   0.1666667  -0.7123824), wk =   0.0185185
        k(    9) = (   0.0000000   0.3333333   0.0000000), wk =   0.0185185
        k(   10) = (   0.0000000   0.3333333   0.2374608), wk =   0.0370370
        k(   11) = (   0.0000000   0.3333333   0.4749216), wk =   0.0370370
        k(   12) = (   0.0000000   0.3333333  -0.7123824), wk =   0.0185185
        k(   13) = (   0.0000000  -0.5000000   0.0000000), wk =   0.0092593
        k(   14) = (   0.0000000  -0.5000000   0.2374608), wk =   0.0185185
        k(   15) = (   0.0000000  -0.5000000   0.4749216), wk =   0.0185185
        k(   16) = (   0.0000000  -0.5000000  -0.7123824), wk =   0.0092593
        k(   17) = (   0.1666667   0.1666667   0.0000000), wk =   0.0185185
        k(   18) = (   0.1666667   0.1666667   0.2374608), wk =   0.0370370
        k(   19) = (   0.1666667   0.1666667   0.4749216), wk =   0.0370370
        k(   20) = (   0.1666667   0.1666667  -0.7123824), wk =   0.0185185
        k(   21) = (   0.1666667   0.3333333   0.0000000), wk =   0.0370370
        k(   22) = (   0.1666667   0.3333333   0.2374608), wk =   0.0740741
        k(   23) = (   0.1666667   0.3333333   0.4749216), wk =   0.0740741
        k(   24) = (   0.1666667   0.3333333  -0.7123824), wk =   0.0370370
        k(   25) = (   0.1666667  -0.5000000   0.0000000), wk =   0.0185185
        k(   26) = (   0.1666667  -0.5000000   0.2374608), wk =   0.0370370
        k(   27) = (   0.1666667  -0.5000000   0.4749216), wk =   0.0370370
        k(   28) = (   0.1666667  -0.5000000  -0.7123824), wk =   0.0185185
        k(   29) = (   0.3333333   0.3333333   0.0000000), wk =   0.0185185
        k(   30) = (   0.3333333   0.3333333   0.2374608), wk =   0.0370370
        k(   31) = (   0.3333333   0.3333333   0.4749216), wk =   0.0370370
        k(   32) = (   0.3333333   0.3333333  -0.7123824), wk =   0.0185185
        k(   33) = (   0.3333333  -0.5000000   0.0000000), wk =   0.0185185
        k(   34) = (   0.3333333  -0.5000000   0.2374608), wk =   0.0370370
        k(   35) = (   0.3333333  -0.5000000   0.4749216), wk =   0.0370370
        k(   36) = (   0.3333333  -0.5000000  -0.7123824), wk =   0.0185185
        k(   37) = (  -0.5000000  -0.5000000   0.0000000), wk =   0.0046296
        k(   38) = (  -0.5000000  -0.5000000   0.2374608), wk =   0.0092593
        k(   39) = (  -0.5000000  -0.5000000   0.4749216), wk =   0.0092593
        k(   40) = (  -0.5000000  -0.5000000  -0.7123824), wk =   0.0046296

                       cryst. coord.
        k(    1) = (   0.0000000   0.0000000   0.0000000), wk =   0.0046296
        k(    2) = (   0.0000000   0.0000000   0.1666667), wk =   0.0092593
        k(    3) = (   0.0000000   0.0000000   0.3333333), wk =   0.0092593
        k(    4) = (   0.0000000   0.0000000  -0.5000000), wk =   0.0046296
        k(    5) = (   0.0000000   0.1666667   0.0000000), wk =   0.0185185
        k(    6) = (   0.0000000   0.1666667   0.1666667), wk =   0.0370370
        k(    7) = (   0.0000000   0.1666667   0.3333333), wk =   0.0370370
        k(    8) = (   0.0000000   0.1666667  -0.5000000), wk =   0.0185185
        k(    9) = (   0.0000000   0.3333333   0.0000000), wk =   0.0185185
        k(   10) = (   0.0000000   0.3333333   0.1666667), wk =   0.0370370
        k(   11) = (   0.0000000   0.3333333   0.3333333), wk =   0.0370370
        k(   12) = (   0.0000000   0.3333333  -0.5000000), wk =   0.0185185
        k(   13) = (   0.0000000  -0.5000000   0.0000000), wk =   0.0092593
        k(   14) = (   0.0000000  -0.5000000   0.1666667), wk =   0.0185185
        k(   15) = (   0.0000000  -0.5000000   0.3333333), wk =   0.0185185
        k(   16) = (   0.0000000  -0.5000000  -0.5000000), wk =   0.0092593
        k(   17) = (   0.1666667   0.1666667   0.0000000), wk =   0.0185185
        k(   18) = (   0.1666667   0.1666667   0.1666667), wk =   0.0370370
        k(   19) = (   0.1666667   0.1666667   0.3333333), wk =   0.0370370
        k(   20) = (   0.1666667   0.1666667  -0.5000000), wk =   0.0185185
        k(   21) = (   0.1666667   0.3333333   0.0000000), wk =   0.0370370
        k(   22) = (   0.1666667   0.3333333   0.1666667), wk =   0.0740741
        k(   23) = (   0.1666667   0.3333333   0.3333333), wk =   0.0740741
        k(   24) = (   0.1666667   0.3333333  -0.5000000), wk =   0.0370370
        k(   25) = (   0.1666667  -0.5000000   0.0000000), wk =   0.0185185
        k(   26) = (   0.1666667  -0.5000000   0.1666667), wk =   0.0370370
        k(   27) = (   0.1666667  -0.5000000   0.3333333), wk =   0.0370370
        k(   28) = (   0.1666667  -0.5000000  -0.5000000), wk =   0.0185185
        k(   29) = (   0.3333333   0.3333333   0.0000000), wk =   0.0185185
        k(   30) = (   0.3333333   0.3333333   0.1666667), wk =   0.0370370
        k(   31) = (   0.3333333   0.3333333   0.3333333), wk =   0.0370370
        k(   32) = (   0.3333333   0.3333333  -0.5000000), wk =   0.0185185
        k(   33) = (   0.3333333  -0.5000000   0.0000000), wk =   0.0185185
        k(   34) = (   0.3333333  -0.5000000   0.1666667), wk =   0.0370370
        k(   35) = (   0.3333333  -0.5000000   0.3333333), wk =   0.0370370
        k(   36) = (   0.3333333  -0.5000000  -0.5000000), wk =   0.0185185
        k(   37) = (  -0.5000000  -0.5000000   0.0000000), wk =   0.0046296
        k(   38) = (  -0.5000000  -0.5000000   0.1666667), wk =   0.0092593
        k(   39) = (  -0.5000000  -0.5000000   0.3333333), wk =   0.0092593
        k(   40) = (  -0.5000000  -0.5000000  -0.5000000), wk =   0.0046296

     Dense  grid:    42999 G-vectors     FFT dimensions: (  50,  50,  36)

     Dynamical RAM for                 wfc:       0.36 MB

     Dynamical RAM for     wfc (w. buffer):      14.63 MB

     Dynamical RAM for           str. fact:       0.04 MB

     Dynamical RAM for           local pot:       0.00 MB

     Dynamical RAM for          nlocal pot:       0.46 MB

     Dynamical RAM for                qrad:      20.10 MB

     Dynamical RAM for          rho,v,vnew:       0.70 MB

     Dynamical RAM for               rhoin:       0.23 MB

     Dynamical RAM for            rho*nmix:       1.31 MB

     Dynamical RAM for           G-vectors:       0.09 MB

     Dynamical RAM for          h,s,v(r/c):       0.04 MB

     Dynamical RAM for          <psi|beta>:       0.38 MB

     Dynamical RAM for                 psi:       0.71 MB

     Dynamical RAM for                hpsi:       0.71 MB

     Dynamical RAM for      wfcinit/wfcrot:       0.67 MB

     Estimated static dynamical RAM per process >      36.62 MB

     Estimated max dynamical RAM per process >      39.78 MB

     Estimated total dynamical RAM >       1.24 GB

     Initial potential from superposition of free atoms

     starting charge      57.9997, renormalised to      58.0000
     Starting wfcs are   72 randomized atomic wfcs

     total cpu time spent up to now is        2.2 secs

     Self-consistent Calculation

     iteration #  1     ecut=    80.00 Ry     beta= 0.70
     Davidson diagonalization with overlap

---- Real-time Memory Report at c_bands before calling an iterative solver
            89 MiB given to the printing process from OS
             0 MiB allocation reported by mallinfo(arena+hblkhd)
        229096 MiB available memory on the node where the printing process lives
------------------
     ethr =  1.00E-02,  avg # of iterations =  2.8

     total cpu time spent up to now is        9.2 secs

     total energy              =    -552.42697831 Ry
     estimated scf accuracy    <       1.21401908 Ry

     iteration #  2     ecut=    80.00 Ry     beta= 0.70
     Davidson diagonalization with overlap

---- Real-time Memory Report at c_bands before calling an iterative solver
            96 MiB given to the printing process from OS
             0 MiB allocation reported by mallinfo(arena+hblkhd)
        228942 MiB available memory on the node where the printing process lives
------------------
     ethr =  2.09E-03,  avg # of iterations =  2.0

     total cpu time spent up to now is       16.7 secs

     total energy              =    -552.29078616 Ry
     estimated scf accuracy    <       4.25384589 Ry

     iteration #  3     ecut=    80.00 Ry     beta= 0.70
     Davidson diagonalization with overlap

---- Real-time Memory Report at c_bands before calling an iterative solver
            99 MiB given to the printing process from OS
             0 MiB allocation reported by mallinfo(arena+hblkhd)
        228892 MiB available memory on the node where the printing process lives
------------------
     ethr =  2.09E-03,  avg # of iterations =  2.0

     total cpu time spent up to now is       23.8 secs

     total energy              =    -553.07564069 Ry
     estimated scf accuracy    <       0.03300119 Ry

     iteration #  4     ecut=    80.00 Ry     beta= 0.70
     Davidson diagonalization with overlap

---- Real-time Memory Report at c_bands before calling an iterative solver
           102 MiB given to the printing process from OS
             0 MiB allocation reported by mallinfo(arena+hblkhd)
        228878 MiB available memory on the node where the printing process lives
------------------
     ethr =  5.69E-05,  avg # of iterations =  2.8

     total cpu time spent up to now is       31.0 secs

     total energy              =    -553.07931027 Ry
     estimated scf accuracy    <       0.00461169 Ry

     iteration #  5     ecut=    80.00 Ry     beta= 0.70
     Davidson diagonalization with overlap

---- Real-time Memory Report at c_bands before calling an iterative solver
           102 MiB given to the printing process from OS
             0 MiB allocation reported by mallinfo(arena+hblkhd)
        228859 MiB available memory on the node where the printing process lives
------------------
     c_bands:  1 eigenvalues not converged
     ethr =  7.95E-06,  avg # of iterations =  3.4

     total cpu time spent up to now is       37.7 secs

     total energy              =    -553.08010356 Ry
     estimated scf accuracy    <       0.00025176 Ry

     iteration #  6     ecut=    80.00 Ry     beta= 0.70
     Davidson diagonalization with overlap

---- Real-time Memory Report at c_bands before calling an iterative solver
           103 MiB given to the printing process from OS
             0 MiB allocation reported by mallinfo(arena+hblkhd)
        228831 MiB available memory on the node where the printing process lives
------------------
     ethr =  4.34E-07,  avg # of iterations =  3.9

     total cpu time spent up to now is       44.5 secs

     total energy              =    -553.08013651 Ry
     estimated scf accuracy    <       0.00000875 Ry

     iteration #  7     ecut=    80.00 Ry     beta= 0.70
     Davidson diagonalization with overlap

---- Real-time Memory Report at c_bands before calling an iterative solver
           103 MiB given to the printing process from OS
             0 MiB allocation reported by mallinfo(arena+hblkhd)
        228829 MiB available memory on the node where the printing process lives
------------------
     ethr =  1.51E-08,  avg # of iterations =  2.0

     total cpu time spent up to now is       51.9 secs

     total energy              =    -553.08013957 Ry
     estimated scf accuracy    <       0.00000067 Ry

     iteration #  8     ecut=    80.00 Ry     beta= 0.70
     Davidson diagonalization with overlap

---- Real-time Memory Report at c_bands before calling an iterative solver
           104 MiB given to the printing process from OS
             0 MiB allocation reported by mallinfo(arena+hblkhd)
        228763 MiB available memory on the node where the printing process lives
------------------
     ethr =  1.15E-09,  avg # of iterations =  2.0

     total cpu time spent up to now is       59.3 secs

     total energy              =    -553.08013960 Ry
     estimated scf accuracy    <       0.00000009 Ry

     iteration #  9     ecut=    80.00 Ry     beta= 0.70
     Davidson diagonalization with overlap

---- Real-time Memory Report at c_bands before calling an iterative solver
           104 MiB given to the printing process from OS
             0 MiB allocation reported by mallinfo(arena+hblkhd)
        228755 MiB available memory on the node where the printing process lives
------------------
     ethr =  1.63E-10,  avg # of iterations =  2.2

     total cpu time spent up to now is       66.4 secs

     total energy              =    -553.08013962 Ry
     estimated scf accuracy    <          4.6E-09 Ry

     iteration # 10     ecut=    80.00 Ry     beta= 0.70
     Davidson diagonalization with overlap

---- Real-time Memory Report at c_bands before calling an iterative solver
           104 MiB given to the printing process from OS
             0 MiB allocation reported by mallinfo(arena+hblkhd)
        228753 MiB available memory on the node where the printing process lives
------------------
     ethr =  7.96E-12,  avg # of iterations =  2.4

     total cpu time spent up to now is       73.5 secs

     End of self-consistent calculation

          k = 0.0000 0.0000 0.0000 (  5409 PWs)   bands (ev):

   -79.3825 -79.3825 -79.3811 -79.3811 -46.2250 -46.2250 -46.2142 -46.2142
   -32.7644 -32.7644 -32.7544 -32.7544 -32.6202 -32.6202 -32.6052 -32.6052
    -7.0751  -7.0751  -5.9194  -5.9194  -5.0044  -5.0044  -4.8029  -4.8029
     4.2684   4.2684   4.5154   4.5154   6.0330   6.0330   6.1444   6.1444
     6.2587   6.2587   8.7853   8.7853   8.9372   8.9372   9.1947   9.1947
    10.3323  10.3323  10.9871  10.9871  10.9907  10.9907  11.0297  11.0297
    11.2065  11.2065  11.3881  11.3881  11.6452  11.6452  11.6727  11.6727
    12.0596  12.0596  14.6461  14.6461  15.0735  15.0735  17.6886  17.6886
    17.8966  17.8966  18.0458  18.0458  19.4474  19.4474

     occupation numbers 
     1.0000   1.0000   1.0000   1.0000   1.0000   1.0000   1.0000   1.0000
     1.0000   1.0000   1.0000   1.0000   1.0000   1.0000   1.0000   1.0000
     1.0000   1.0000   1.0000   1.0000   1.0000   1.0000   1.0000   1.0000
     1.0000   1.0000   1.0000   1.0000   1.0000   1.0000   1.0000   1.0000
     1.0000   1.0000   1.0000   1.0000   1.0000   1.0000   1.0000   1.0000
     1.0000   1.0000   1.0000   1.0000   1.0000   1.0000   1.0000   1.0000
     1.0000   1.0000   1.0000   1.0000   1.0000   1.0000   1.0000   1.0000
     1.0000   1.0000  -0.0000  -0.0000  -0.0000  -0.0000  -0.0000  -0.0000
    -0.0000  -0.0000  -0.0000  -0.0000  -0.0000  -0.0000

          k = 0.0000 0.0000 0.2375 (  5377 PWs)   bands (ev):

   -79.3818 -79.3818 -79.3806 -79.3806 -46.2271 -46.2271 -46.2178 -46.2178
   -32.7712 -32.7712 -32.7690 -32.7690 -32.6297 -32.6297 -32.6100 -32.6100
    -6.8299  -6.8299  -5.7975  -5.7975  -5.1156  -5.1156  -4.9530  -4.9530
     4.6286   4.6286   4.7721   4.7721   6.2443   6.2443   6.2943   6.2943
     6.5262   6.5262   7.9187   7.9187   8.9863   8.9863   9.2919   9.2919
     9.3531   9.3531   9.8658   9.8658   9.9209   9.9209  11.1111  11.1111
    11.6926  11.6926  11.7429  11.7429  11.9357  11.9357  12.6500  12.6500
    12.6946  12.6946  14.8164  14.8164  15.1902  15.1902  17.1037  17.1037
    17.4100  17.4100  18.4255  18.4255  19.1573  19.1573

     occupation numbers 
     1.0000   1.0000   1.0000   1.0000   1.0000   1.0000   1.0000   1.0000
     1.0000   1.0000   1.0000   1.0000   1.0000   1.0000   1.0000   1.0000
     1.0000   1.0000   1.0000   1.0000   1.0000   1.0000   1.0000   1.0000
     1.0000   1.0000   1.0000   1.0000   1.0000   1.0000   1.0000   1.0000
     1.0000   1.0000   1.0000   1.0000   1.0000   1.0000   1.0000   1.0000
     1.0000   1.0000   1.0000   1.0000   1.0000   1.0000   1.0000   1.0000
     1.0000   1.0000   1.0000   1.0000   1.0000   1.0000   1.0000   1.0000
     1.0000   1.0000  -0.0000  -0.0000  -0.0000  -0.0000  -0.0000  -0.0000
    -0.0000  -0.0000  -0.0000  -0.0000  -0.0000  -0.0000

          k = 0.0000 0.0000 0.4749 (  5385 PWs)   bands (ev):

   -79.3804 -79.3804 -79.3797 -79.3797 -46.2307 -46.2307 -46.2253 -46.2253
   -32.7996 -32.7996 -32.7949 -32.7949 -32.6368 -32.6368 -32.6193 -32.6193
    -6.2493  -6.2493  -5.6231  -5.6231  -5.3141  -5.3141  -5.2451  -5.2451
     5.3318   5.3318   5.5053   5.5053   6.5562   6.5562   6.7259   6.7259
     6.8436   6.8436   7.3060   7.3060   7.6372   7.6372   8.6700   8.6700
     8.8244   8.8244   9.6592   9.6592   9.9055   9.9055   9.9391   9.9391
    11.7958  11.7958  12.1888  12.1888  12.2745  12.2745  13.5522  13.5522
    13.6444  13.6444  14.1945  14.1945  15.9785  15.9785  16.3341  16.3341
    16.6293  16.6293  17.3636  17.3636  20.8838  20.8838

     occupation numbers 
     1.0000   1.0000   1.0000   1.0000   1.0000   1.0000   1.0000   1.0000
     1.0000   1.0000   1.0000   1.0000   1.0000   1.0000   1.0000   1.0000
     1.0000   1.0000   1.0000   1.0000   1.0000   1.0000   1.0000   1.0000
     1.0000   1.0000   1.0000   1.0000   1.0000   1.0000   1.0000   1.0000
     1.0000   1.0000   1.0000   1.0000   1.0000   1.0000   1.0000   1.0000
     1.0000   1.0000   1.0000   1.0000   1.0000   1.0000   1.0000   1.0000
     1.0000   1.0000   1.0000   1.0000   1.0000   1.0000   1.0000   1.0000
     1.0015   1.0015  -0.0000  -0.0000  -0.0000  -0.0000  -0.0000  -0.0000
    -0.0000  -0.0000  -0.0000  -0.0000  -0.0000  -0.0000

          k = 0.0000 0.0000-0.7124 (  5314 PWs)   bands (ev):

   -79.3795 -79.3795 -79.3795 -79.3795 -46.2308 -46.2308 -46.2308 -46.2308
   -32.8132 -32.8132 -32.8132 -32.8132 -32.6296 -32.6296 -32.6296 -32.6296
    -5.7346  -5.7346  -5.7346  -5.7346  -5.4017  -5.4017  -5.4017  -5.4017
     5.7328   5.7328   5.7328   5.7328   6.7021   6.7021   6.7021   6.7021
     7.0974   7.0974   7.0974   7.0974   8.2013   8.2013   8.2013   8.2013
     8.5520   8.5520   8.5520   8.5520   9.9563   9.9563   9.9563   9.9563
    11.8965  11.8965  11.8965  11.8965  13.0839  13.0839  13.0839  13.0839
    14.1197  14.1197  14.1197  14.1197  16.0950  16.0950  16.0950  16.0950
    16.6100  16.6100  16.6100  16.6100  22.9234  22.9234

     occupation numbers 
     1.0000   1.0000   1.0000   1.0000   1.0000   1.0000   1.0000   1.0000
     1.0000   1.0000   1.0000   1.0000   1.0000   1.0000   1.0000   1.0000
     1.0000   1.0000   1.0000   1.0000   1.0000   1.0000   1.0000   1.0000
     1.0000   1.0000   1.0000   1.0000   1.0000   1.0000   1.0000   1.0000
     1.0000   1.0000   1.0000   1.0000   1.0000   1.0000   1.0000   1.0000
     1.0000   1.0000   1.0000   1.0000   1.0000   1.0000   1.0000   1.0000
     1.0000   1.0000   1.0000   1.0000   1.0000   1.0000   1.0000   1.0000
    -0.0000  -0.0000  -0.0000  -0.0000  -0.0000  -0.0000  -0.0000  -0.0000
    -0.0000  -0.0000  -0.0000  -0.0000  -0.0000  -0.0000

          k = 0.0000 0.1667 0.0000 (  5375 PWs)   bands (ev):

   -79.3824 -79.3824 -79.3812 -79.3812 -46.2243 -46.2243 -46.2150 -46.2150
   -32.7629 -32.7629 -32.7543 -32.7543 -32.6202 -32.6202 -32.6071 -32.6071
    -6.9710  -6.9710  -5.9087  -5.9087  -5.0940  -5.0940  -4.9030  -4.9030
     4.5306   4.5306   4.7147   4.7147   6.0721   6.0721   6.1679   6.1679
     6.4325   6.4325   8.5516   8.5516   8.6487   8.6487   8.8455   8.8455
     9.8485   9.8485  10.2172  10.2172  10.6891  10.6891  11.4682  11.4682
    11.5026  11.5026  11.5590  11.5590  11.8248  11.8248  11.9604  11.9604
    12.3786  12.3786  14.8498  14.8498  15.1097  15.1097  17.5838  17.5838
    17.9014  17.9014  18.3696  18.3696  19.1981  19.1981

     occupation numbers 
     1.0000   1.0000   1.0000   1.0000   1.0000   1.0000   1.0000   1.0000
     1.0000   1.0000   1.0000   1.0000   1.0000   1.0000   1.0000   1.0000
     1.0000   1.0000   1.0000   1.0000   1.0000   1.0000   1.0000   1.0000
     1.0000   1.0000   1.0000   1.0000   1.0000   1.0000   1.0000   1.0000
     1.0000   1.0000   1.0000   1.0000   1.0000   1.0000   1.0000   1.0000
     1.0000   1.0000   1.0000   1.0000   1.0000   1.0000   1.0000   1.0000
     1.0000   1.0000   1.0000   1.0000   1.0000   1.0000   1.0000   1.0000
     1.0000   1.0000  -0.0000  -0.0000  -0.0000  -0.0000  -0.0000  -0.0000
    -0.0000  -0.0000  -0.0000  -0.0000  -0.0000  -0.0000

          k = 0.0000 0.1667 0.2375 (  5379 PWs)   bands (ev):

   -79.3817 -79.3817 -79.3807 -79.3807 -46.2264 -46.2264 -46.2184 -46.2184
   -32.7739 -32.7739 -32.7652 -32.7652 -32.6295 -32.6295 -32.6115 -32.6115
    -6.7344  -6.7344  -5.7767  -5.7767  -5.2003  -5.2003  -5.0394  -5.0394
     4.8431   4.8431   4.9669   4.9669   6.2381   6.2381   6.2917   6.2917
     6.7718   6.7718   7.7785   7.7785   8.5077   8.5077   8.8894   8.8894
     9.1713   9.1713   9.8804   9.8804   9.9272   9.9272  11.3065  11.3065
    11.4025  11.4025  12.0613  12.0613  12.1747  12.1747  12.5870  12.5870
    12.8678  12.8678  14.6362  14.6362  15.5502  15.5502  16.8861  16.8861
    17.2303  17.2303  18.7149  18.7149  19.2731  19.2731

     occupation numbers 
     1.0000   1.0000   1.0000   1.0000   1.0000   1.0000   1.0000   1.0000
     1.0000   1.0000   1.0000   1.0000   1.0000   1.0000   1.0000   1.0000
     1.0000   1.0000   1.0000   1.0000   1.0000   1.0000   1.0000   1.0000
     1.0000   1.0000   1.0000   1.0000   1.0000   1.0000   1.0000   1.0000
     1.0000   1.0000   1.0000   1.0000   1.0000   1.0000   1.0000   1.0000
     1.0000   1.0000   1.0000   1.0000   1.0000   1.0000   1.0000   1.0000
     1.0000   1.0000   1.0000   1.0000   1.0000   1.0000   1.0000   1.0000
     1.0000   1.0000  -0.0000  -0.0000  -0.0000  -0.0000  -0.0000  -0.0000
    -0.0000  -0.0000  -0.0000  -0.0000  -0.0000  -0.0000

          k = 0.0000 0.1667 0.4749 (  5385 PWs)   bands (ev):

   -79.3803 -79.3803 -79.3798 -79.3798 -46.2304 -46.2304 -46.2257 -46.2257
   -32.8045 -32.8045 -32.7899 -32.7899 -32.6371 -32.6371 -32.6193 -32.6193
    -6.1904  -6.1904  -5.6180  -5.6180  -5.3634  -5.3634  -5.2725  -5.2725
     5.4575   5.4575   5.5902   5.5902   6.3124   6.3124   6.6769   6.6769
     6.9917   6.9917   7.3224   7.3224   7.6298   7.6298   8.7194   8.7194
     8.9482   8.9482   9.4692   9.4692   9.6622   9.6622  10.2370  10.2370
    11.8299  11.8299  12.1024  12.1024  12.2727  12.2727  13.2651  13.2651
    13.6985  13.6985  14.2367  14.2367  15.8747  15.8747  15.9914  15.9914
    16.7853  16.7853  17.8451  17.8451  21.0659  21.0659

     occupation numbers 
     1.0000   1.0000   1.0000   1.0000   1.0000   1.0000   1.0000   1.0000
     1.0000   1.0000   1.0000   1.0000   1.0000   1.0000   1.0000   1.0000
     1.0000   1.0000   1.0000   1.0000   1.0000   1.0000   1.0000   1.0000
     1.0000   1.0000   1.0000   1.0000   1.0000   1.0000   1.0000   1.0000
     1.0000   1.0000   1.0000   1.0000   1.0000   1.0000   1.0000   1.0000
     1.0000   1.0000   1.0000   1.0000   1.0000   1.0000   1.0000   1.0000
     1.0000   1.0000   1.0000   1.0000   1.0000   1.0000   1.0000   1.0000
     1.0213   1.0213  -0.0000  -0.0000  -0.0000  -0.0000  -0.0000  -0.0000
    -0.0000  -0.0000  -0.0000  -0.0000  -0.0000  -0.0000

          k = 0.0000 0.1667-0.7124 (  5378 PWs)   bands (ev):

   -79.3795 -79.3795 -79.3795 -79.3795 -46.2313 -46.2313 -46.2303 -46.2303
   -32.8210 -32.8210 -32.8056 -32.8056 -32.6346 -32.6346 -32.6246 -32.6246
    -5.7697  -5.7697  -5.7527  -5.7527  -5.4197  -5.4197  -5.3208  -5.3208
     5.7155   5.7155   5.7789   5.7789   6.2413   6.2413   6.3486   6.3486
     7.4709   7.4709   7.5159   7.5159   8.1080   8.1080   8.2973   8.2973
     8.8354   8.8354   8.8917   8.8917   9.7669   9.7669   9.8059   9.8059
    11.8830  11.8830  11.9105  11.9105  12.6601  12.6601  12.8798  12.8798
    14.0487  14.0487  14.3408  14.3408  15.5652  15.5652  15.6575  15.6575
    17.1479  17.1479  17.3487  17.3487  22.9369  22.9481

     occupation numbers 
     1.0000   1.0000   1.0000   1.0000   1.0000   1.0000   1.0000   1.0000
     1.0000   1.0000   1.0000   1.0000   1.0000   1.0000   1.0000   1.0000
     1.0000   1.0000   1.0000   1.0000   1.0000   1.0000   1.0000   1.0000
     1.0000   1.0000   1.0000   1.0000   1.0000   1.0000   1.0000   1.0000
     1.0000   1.0000   1.0000   1.0000   1.0000   1.0000   1.0000   1.0000
     1.0000   1.0000   1.0000   1.0000   1.0000   1.0000   1.0000   1.0000
     1.0000   1.0000   1.0000   1.0000   1.0000   1.0000   1.0000   1.0000
    -0.0000  -0.0000  -0.0000  -0.0000  -0.0000  -0.0000  -0.0000  -0.0000
    -0.0000  -0.0000  -0.0000  -0.0000  -0.0000  -0.0000

          k = 0.0000 0.3333 0.0000 (  5372 PWs)   bands (ev):

   -79.3821 -79.3821 -79.3815 -79.3815 -46.2223 -46.2223 -46.2170 -46.2170
   -32.7595 -32.7595 -32.7546 -32.7546 -32.6193 -32.6193 -32.6117 -32.6117
    -6.6804  -6.6804  -5.9674  -5.9674  -5.2784  -5.2784  -5.0952  -5.0952
     5.1627   5.1627   5.2418   5.2418   6.1585   6.1585   6.2164   6.2164
     6.9472   6.9472   7.7706   7.7706   7.9144   7.9144   8.6244   8.6244
     9.0214   9.0214   9.2184   9.2184  10.6156  10.6156  11.1860  11.1860
    11.9015  11.9015  12.0146  12.0146  12.2299  12.2299  12.4094  12.4094
    12.9478  12.9478  14.3206  14.3206  16.1649  16.1649  17.3611  17.3611
    17.5883  17.5883  18.4841  18.4841  19.5070  19.5070

     occupation numbers 
     1.0000   1.0000   1.0000   1.0000   1.0000   1.0000   1.0000   1.0000
     1.0000   1.0000   1.0000   1.0000   1.0000   1.0000   1.0000   1.0000
     1.0000   1.0000   1.0000   1.0000   1.0000   1.0000   1.0000   1.0000
     1.0000   1.0000   1.0000   1.0000   1.0000   1.0000   1.0000   1.0000
     1.0000   1.0000   1.0000   1.0000   1.0000   1.0000   1.0000   1.0000
     1.0000   1.0000   1.0000   1.0000   1.0000   1.0000   1.0000   1.0000
     1.0000   1.0000   1.0000   1.0000   1.0000   1.0000   1.0000   1.0000
     1.0000   1.0000  -0.0000  -0.0000  -0.0000  -0.0000  -0.0000  -0.0000
    -0.0000  -0.0000  -0.0000  -0.0000  -0.0000  -0.0000

          k = 0.0000 0.3333 0.2375 (  5364 PWs)   bands (ev):

   -79.3815 -79.3815 -79.3809 -79.3809 -46.2248 -46.2248 -46.2201 -46.2201
   -32.7759 -32.7759 -32.7612 -32.7612 -32.6289 -32.6289 -32.6148 -32.6148
    -6.4670  -6.4670  -5.7956  -5.7956  -5.3917  -5.3917  -5.2031  -5.2031
     5.3820   5.3820   5.4928   5.4928   6.2572   6.2572   6.3201   6.3201
     7.1397   7.1397   7.7461   7.7461   7.8664   7.8664   8.1106   8.1106
     8.3545   8.3545   9.4211   9.4211  10.3394  10.3394  10.9841  10.9841
    11.8235  11.8235  12.2511  12.2511  12.4857  12.4857  12.7493  12.7493
    13.2171  13.2171  14.1867  14.1867  16.2549  16.2549  16.5590  16.5590
    17.0340  17.0340  18.3939  18.3939  20.2446  20.2446

     occupation numbers 
     1.0000   1.0000   1.0000   1.0000   1.0000   1.0000   1.0000   1.0000
     1.0000   1.0000   1.0000   1.0000   1.0000   1.0000   1.0000   1.0000
     1.0000   1.0000   1.0000   1.0000   1.0000   1.0000   1.0000   1.0000
     1.0000   1.0000   1.0000   1.0000   1.0000   1.0000   1.0000   1.0000
     1.0000   1.0000   1.0000   1.0000   1.0000   1.0000   1.0000   1.0000
     1.0000   1.0000   1.0000   1.0000   1.0000   1.0000   1.0000   1.0000
     1.0000   1.0000   1.0000   1.0000   1.0000   1.0000   1.0000   1.0000
     1.0000   1.0000  -0.0000  -0.0000  -0.0000  -0.0000  -0.0000  -0.0000
    -0.0000  -0.0000  -0.0000  -0.0000  -0.0000  -0.0000

          k = 0.0000 0.3333 0.4749 (  5365 PWs)   bands (ev):

   -79.3802 -79.3802 -79.3799 -79.3799 -46.2296 -46.2296 -46.2265 -46.2265
   -32.8092 -32.8092 -32.7850 -32.7850 -32.6376 -32.6376 -32.6194 -32.6194
    -6.0297  -6.0297  -5.6427  -5.6427  -5.4699  -5.4699  -5.3275  -5.3275
     5.7337   5.7337   5.8307   5.8307   6.1157   6.1157   6.4723   6.4723
     6.9386   6.9386   7.2094   7.2094   8.0459   8.0459   8.6144   8.6144
     8.9359   8.9359   9.1622   9.1622   9.6916   9.6916  10.7625  10.7625
    11.3184  11.3184  12.2365  12.2365  12.3362  12.3362  12.7771  12.7771
    13.8135  13.8135  14.2530  14.2530  15.4350  15.4350  15.6545  15.6545
    17.4282  17.4282  18.2392  18.2392  21.6396  21.6396

     occupation numbers 
     1.0000   1.0000   1.0000   1.0000   1.0000   1.0000   1.0000   1.0000
     1.0000   1.0000   1.0000   1.0000   1.0000   1.0000   1.0000   1.0000
     1.0000   1.0000   1.0000   1.0000   1.0000   1.0000   1.0000   1.0000
     1.0000   1.0000   1.0000   1.0000   1.0000   1.0000   1.0000   1.0000
     1.0000   1.0000   1.0000   1.0000   1.0000   1.0000   1.0000   1.0000
     1.0000   1.0000   1.0000   1.0000   1.0000   1.0000   1.0000   1.0000
     1.0000   1.0000   1.0000   1.0000   1.0000   1.0000   1.0000   1.0000
     0.4562   0.4562  -0.0000  -0.0000  -0.0000  -0.0000  -0.0000  -0.0000
    -0.0000  -0.0000  -0.0000  -0.0000  -0.0000  -0.0000

          k = 0.0000 0.3333-0.7124 (  5356 PWs)   bands (ev):

   -79.3795 -79.3795 -79.3795 -79.3795 -46.2317 -46.2317 -46.2300 -46.2300
   -32.8269 -32.8269 -32.8001 -32.8001 -32.6382 -32.6382 -32.6209 -32.6209
    -5.8102  -5.8102  -5.8033  -5.8033  -5.3889  -5.3889  -5.2406  -5.2406
     5.5583   5.5583   5.6250   5.6250   6.1262   6.1262   6.1956   6.1956
     7.5993   7.5993   7.9120   7.9120   8.2233   8.2233   8.4001   8.4001
     9.2187   9.2187   9.2312   9.2312   9.8083   9.8083   9.8442   9.8442
    11.6854  11.6854  11.8270  11.8270  11.9255  11.9255  12.3696  12.3696
    14.1232  14.1232  14.4748  14.4748  15.1607  15.1607  15.2106  15.2106
    17.9027  17.9027  18.0904  18.0904  23.0310  23.0319

     occupation numbers 
     1.0000   1.0000   1.0000   1.0000   1.0000   1.0000   1.0000   1.0000
     1.0000   1.0000   1.0000   1.0000   1.0000   1.0000   1.0000   1.0000
     1.0000   1.0000   1.0000   1.0000   1.0000   1.0000   1.0000   1.0000
     1.0000   1.0000   1.0000   1.0000   1.0000   1.0000   1.0000   1.0000
     1.0000   1.0000   1.0000   1.0000   1.0000   1.0000   1.0000   1.0000
     1.0000   1.0000   1.0000   1.0000   1.0000   1.0000   1.0000   1.0000
     1.0000   1.0000   1.0000   1.0000   1.0000   1.0000   1.0000   1.0000
    -0.0000  -0.0000  -0.0000  -0.0000  -0.0000  -0.0000  -0.0000  -0.0000
    -0.0000  -0.0000  -0.0000  -0.0000  -0.0000  -0.0000

          k = 0.0000-0.5000 0.0000 (  5380 PWs)   bands (ev):

   -79.3818 -79.3818 -79.3818 -79.3818 -46.2196 -46.2196 -46.2196 -46.2196
   -32.7562 -32.7562 -32.7562 -32.7562 -32.6165 -32.6165 -32.6165 -32.6165
    -6.2813  -6.2813  -6.2813  -6.2813  -5.2644  -5.2644  -5.2644  -5.2644
     5.6287   5.6287   5.6287   5.6287   6.2397   6.2397   6.2397   6.2397
     7.2631   7.2631   7.2631   7.2631   7.8916   7.8916   7.8916   7.8916
     8.7696   8.7696   8.7696   8.7696  10.8271  10.8271  10.8271  10.8271
    12.1257  12.1257  12.1257  12.1257  12.5034  12.5034  12.5034  12.5034
    13.6388  13.6388  13.6388  13.6388  17.2191  17.2191  17.2191  17.2191
    17.5173  17.5173  17.5173  17.5173  20.7714  20.7714

     occupation numbers 
     1.0000   1.0000   1.0000   1.0000   1.0000   1.0000   1.0000   1.0000
     1.0000   1.0000   1.0000   1.0000   1.0000   1.0000   1.0000   1.0000
     1.0000   1.0000   1.0000   1.0000   1.0000   1.0000   1.0000   1.0000
     1.0000   1.0000   1.0000   1.0000   1.0000   1.0000   1.0000   1.0000
     1.0000   1.0000   1.0000   1.0000   1.0000   1.0000   1.0000   1.0000
     1.0000   1.0000   1.0000   1.0000   1.0000   1.0000   1.0000   1.0000
     1.0000   1.0000   1.0000   1.0000   1.0000   1.0000   1.0000   1.0000
     1.0011   1.0011   1.0011   1.0011  -0.0000  -0.0000  -0.0000  -0.0000
    -0.0000  -0.0000  -0.0000  -0.0000  -0.0000  -0.0000

          k = 0.0000-0.5000 0.2375 (  5364 PWs)   bands (ev):

   -79.3812 -79.3812 -79.3812 -79.3812 -46.2229 -46.2229 -46.2220 -46.2220
   -32.7765 -32.7765 -32.7595 -32.7595 -32.6282 -32.6282 -32.6168 -32.6168
    -6.1107  -6.1107  -6.0758  -6.0758  -5.3825  -5.3825  -5.3406  -5.3406
     5.8547   5.8547   5.9827   5.9827   6.1880   6.1880   6.1933   6.1933
     7.3160   7.3160   7.3344   7.3344   7.7599   7.7599   7.7777   7.7777
     8.5046   8.5046   8.5899   8.5899  10.7145  10.7145  10.7241  10.7241
    12.0891  12.0891  12.1402  12.1402  12.7220  12.7220  12.9044  12.9044
    13.4813  13.4813  13.8146  13.8146  16.3202  16.3202  16.5012  16.5012
    17.6378  17.6378  17.6399  17.6399  21.4241  21.4277

     occupation numbers 
     1.0000   1.0000   1.0000   1.0000   1.0000   1.0000   1.0000   1.0000
     1.0000   1.0000   1.0000   1.0000   1.0000   1.0000   1.0000   1.0000
     1.0000   1.0000   1.0000   1.0000   1.0000   1.0000   1.0000   1.0000
     1.0000   1.0000   1.0000   1.0000   1.0000   1.0000   1.0000   1.0000
     1.0000   1.0000   1.0000   1.0000   1.0000   1.0000   1.0000   1.0000
     1.0000   1.0000   1.0000   1.0000   1.0000   1.0000   1.0000   1.0000
     1.0000   1.0000   1.0000   1.0000   1.0000   1.0000   1.0000   1.0000
     1.0000   1.0000   0.4425   0.4425  -0.0000  -0.0000  -0.0000  -0.0000
    -0.0000  -0.0000  -0.0000  -0.0000  -0.0000  -0.0000

          k = 0.0000-0.5000 0.4749 (  5380 PWs)   bands (ev):

   -79.3801 -79.3801 -79.3801 -79.3801 -46.2289 -46.2289 -46.2272 -46.2272
   -32.8110 -32.8110 -32.7831 -32.7831 -32.6379 -32.6379 -32.6195 -32.6195
    -5.8163  -5.8163  -5.8123  -5.8123  -5.4938  -5.4938  -5.3602  -5.3602
     5.9353   5.9353   5.9609   5.9609   6.1667   6.1667   6.1979   6.1979
     6.9175   6.9175   7.1674   7.1674   8.3190   8.3190   8.3416   8.3416
     8.9260   8.9260   9.0165   9.0165  10.2560  10.2560  10.3048  10.3048
    11.7244  11.7244  11.7686  11.7686  12.3894  12.3894  12.6839  12.6839
    13.8560  13.8560  14.2680  14.2680  15.3416  15.3416  15.3905  15.3905
    17.9808  17.9808  18.1155  18.1155  22.5199  22.5203

     occupation numbers 
     1.0000   1.0000   1.0000   1.0000   1.0000   1.0000   1.0000   1.0000
     1.0000   1.0000   1.0000   1.0000   1.0000   1.0000   1.0000   1.0000
     1.0000   1.0000   1.0000   1.0000   1.0000   1.0000   1.0000   1.0000
     1.0000   1.0000   1.0000   1.0000   1.0000   1.0000   1.0000   1.0000
     1.0000   1.0000   1.0000   1.0000   1.0000   1.0000   1.0000   1.0000
     1.0000   1.0000   1.0000   1.0000   1.0000   1.0000   1.0000   1.0000
     1.0000   1.0000   1.0000   1.0000   1.0000   1.0000   1.0000   1.0000
     0.0486   0.0486  -0.0000  -0.0000  -0.0000  -0.0000  -0.0000  -0.0000
    -0.0000  -0.0000  -0.0000  -0.0000  -0.0000  -0.0000

          k = 0.0000-0.5000-0.7124 (  5360 PWs)   bands (ev):

   -79.3795 -79.3795 -79.3795 -79.3795 -46.2318 -46.2318 -46.2299 -46.2299
   -32.8290 -32.8290 -32.7982 -32.7982 -32.6395 -32.6395 -32.6195 -32.6195
    -5.8268  -5.8268  -5.8264  -5.8264  -5.3712  -5.3712  -5.2086  -5.2086
     5.4437   5.4437   5.4867   5.4867   6.2136   6.2136   6.2157   6.2157
     7.5323   7.5323   8.0728   8.0728   8.4808   8.4808   8.6297   8.6297
     8.8390   8.8390   8.9348   8.9348  10.6105  10.6105  10.6220  10.6220
    11.0378  11.0378  11.0520  11.0520  11.9029  11.9029  12.2311  12.2311
    14.1608  14.1608  14.5048  14.5048  15.0199  15.0199  15.0659  15.0659
    18.2279  18.2279  18.3973  18.3973  23.1349  23.1353

     occupation numbers 
     1.0000   1.0000   1.0000   1.0000   1.0000   1.0000   1.0000   1.0000
     1.0000   1.0000   1.0000   1.0000   1.0000   1.0000   1.0000   1.0000
     1.0000   1.0000   1.0000   1.0000   1.0000   1.0000   1.0000   1.0000
     1.0000   1.0000   1.0000   1.0000   1.0000   1.0000   1.0000   1.0000
     1.0000   1.0000   1.0000   1.0000   1.0000   1.0000   1.0000   1.0000
     1.0000   1.0000   1.0000   1.0000   1.0000   1.0000   1.0000   1.0000
     1.0000   1.0000   1.0000   1.0000   1.0000   1.0000   1.0000   1.0000
    -0.0000  -0.0000  -0.0000  -0.0000  -0.0000  -0.0000  -0.0000  -0.0000
    -0.0000  -0.0000  -0.0000  -0.0000  -0.0000  -0.0000

          k = 0.1667 0.1667 0.0000 (  5363 PWs)   bands (ev):

   -79.3823 -79.3823 -79.3813 -79.3813 -46.2237 -46.2237 -46.2156 -46.2156
   -32.7621 -32.7621 -32.7543 -32.7543 -32.6200 -32.6200 -32.6084 -32.6084
    -6.8853  -6.8853  -5.9121  -5.9121  -5.2059  -5.2059  -4.9154  -4.9154
     4.3921   4.3921   5.2177   5.2177   6.0611   6.0611   6.2094   6.2094
     6.5992   6.5992   7.8256   7.8256   8.6285   8.6285   8.9966   8.9966
     9.8003   9.8003  10.1727  10.1727  10.3794  10.3794  11.1572  11.1572
    11.3900  11.3900  11.6423  11.6423  12.0480  12.0480  12.2606  12.2606
    12.6644  12.6644  14.7253  14.7253  15.2673  15.2673  17.4340  17.4340
    17.9026  17.9026  18.8670  18.8670  18.9393  18.9393

     occupation numbers 
     1.0000   1.0000   1.0000   1.0000   1.0000   1.0000   1.0000   1.0000
     1.0000   1.0000   1.0000   1.0000   1.0000   1.0000   1.0000   1.0000
     1.0000   1.0000   1.0000   1.0000   1.0000   1.0000   1.0000   1.0000
     1.0000   1.0000   1.0000   1.0000   1.0000   1.0000   1.0000   1.0000
     1.0000   1.0000   1.0000   1.0000   1.0000   1.0000   1.0000   1.0000
     1.0000   1.0000   1.0000   1.0000   1.0000   1.0000   1.0000   1.0000
     1.0000   1.0000   1.0000   1.0000   1.0000   1.0000   1.0000   1.0000
     1.0000   1.0000  -0.0000  -0.0000  -0.0000  -0.0000  -0.0000  -0.0000
    -0.0000  -0.0000  -0.0000  -0.0000  -0.0000  -0.0000

          k = 0.1667 0.1667 0.2375 (  5374 PWs)   bands (ev):

   -79.3816 -79.3816 -79.3808 -79.3808 -46.2259 -46.2259 -46.2189 -46.2189
   -32.7746 -32.7746 -32.7640 -32.7640 -32.6291 -32.6291 -32.6127 -32.6127
    -6.6553  -6.6553  -5.7656  -5.7656  -5.3112  -5.3112  -5.0490  -5.0490
     4.6950   4.6950   5.4436   5.4436   6.1428   6.1428   6.3741   6.3741
     6.9556   6.9556   7.5821   7.5821   8.2113   8.2113   8.6133   8.6133
     9.1935   9.1935   9.8038   9.8038  10.1980  10.1980  11.1044  11.1044
    11.4601  11.4601  11.8454  11.8454  12.3406  12.3406  12.7015  12.7015
    13.0802  13.0802  14.5049  14.5049  15.7169  15.7169  16.6321  16.6321
    17.2959  17.2959  18.6410  18.6410  19.6324  19.6324

     occupation numbers 
     1.0000   1.0000   1.0000   1.0000   1.0000   1.0000   1.0000   1.0000
     1.0000   1.0000   1.0000   1.0000   1.0000   1.0000   1.0000   1.0000
     1.0000   1.0000   1.0000   1.0000   1.0000   1.0000   1.0000   1.0000
     1.0000   1.0000   1.0000   1.0000   1.0000   1.0000   1.0000   1.0000
     1.0000   1.0000   1.0000   1.0000   1.0000   1.0000   1.0000   1.0000
     1.0000   1.0000   1.0000   1.0000   1.0000   1.0000   1.0000   1.0000
     1.0000   1.0000   1.0000   1.0000   1.0000   1.0000   1.0000   1.0000
     1.0000   1.0000  -0.0000  -0.0000  -0.0000  -0.0000  -0.0000  -0.0000
    -0.0000  -0.0000  -0.0000  -0.0000  -0.0000  -0.0000

          k = 0.1667 0.1667 0.4749 (  5369 PWs)   bands (ev):

   -79.3803 -79.3803 -79.3798 -79.3798 -46.2301 -46.2301 -46.2260 -46.2260
   -32.8059 -32.8059 -32.7885 -32.7885 -32.6370 -32.6370 -32.6196 -32.6196
    -6.1387  -6.1387  -5.6174  -5.6174  -5.4088  -5.4088  -5.2851  -5.2851
     5.4053   5.4053   5.8051   5.8051   6.2194   6.2194   6.4720   6.4720
     7.1064   7.1064   7.2966   7.2966   7.8049   7.8049   8.6517   8.6517
     8.8175   8.8175   9.4814   9.4814   9.7081   9.7081  10.4736  10.4736
    11.6551  11.6551  12.0350  12.0350  12.3791  12.3791  13.2673  13.2673
    13.5014  13.5014  14.2960  14.2960  15.5047  15.5047  16.3082  16.3082
    16.7307  16.7307  18.0263  18.0263  21.2530  21.2530

     occupation numbers 
     1.0000   1.0000   1.0000   1.0000   1.0000   1.0000   1.0000   1.0000
     1.0000   1.0000   1.0000   1.0000   1.0000   1.0000   1.0000   1.0000
     1.0000   1.0000   1.0000   1.0000   1.0000   1.0000   1.0000   1.0000
     1.0000   1.0000   1.0000   1.0000   1.0000   1.0000   1.0000   1.0000
     1.0000   1.0000   1.0000   1.0000   1.0000   1.0000   1.0000   1.0000
     1.0000   1.0000   1.0000   1.0000   1.0000   1.0000   1.0000   1.0000
     1.0000   1.0000   1.0000   1.0000   1.0000   1.0000   1.0000   1.0000
     1.0000   1.0000  -0.0000  -0.0000  -0.0000  -0.0000  -0.0000  -0.0000
    -0.0000  -0.0000  -0.0000  -0.0000  -0.0000  -0.0000

          k = 0.1667 0.1667-0.7124 (  5376 PWs)   bands (ev):

   -79.3795 -79.3795 -79.3795 -79.3795 -46.2314 -46.2314 -46.2302 -46.2302
   -32.8228 -32.8228 -32.8039 -32.8039 -32.6357 -32.6357 -32.6235 -32.6235
    -5.8191  -5.8191  -5.7005  -5.7005  -5.4538  -5.4538  -5.2813  -5.2813
     5.5985   5.5985   5.9136   5.9136   6.0720   6.0720   6.5187   6.5187
     6.7366   6.7366   8.0662   8.0662   8.3064   8.3064   8.4750   8.4750
     8.7928   8.7928   9.2562   9.2562   9.3191   9.3191  10.0051  10.0051
    11.8698  11.8698  11.8891  11.8891  12.3450  12.3450  13.0057  13.0057
    13.7241  13.7241  14.5164  14.5164  15.1189  15.1189  16.1109  16.1109
    16.8243  16.8243  17.8492  17.8492  22.9117  22.9126

     occupation numbers 
     1.0000   1.0000   1.0000   1.0000   1.0000   1.0000   1.0000   1.0000
     1.0000   1.0000   1.0000   1.0000   1.0000   1.0000   1.0000   1.0000
     1.0000   1.0000   1.0000   1.0000   1.0000   1.0000   1.0000   1.0000
     1.0000   1.0000   1.0000   1.0000   1.0000   1.0000   1.0000   1.0000
     1.0000   1.0000   1.0000   1.0000   1.0000   1.0000   1.0000   1.0000
     1.0000   1.0000   1.0000   1.0000   1.0000   1.0000   1.0000   1.0000
     1.0000   1.0000   1.0000   1.0000   1.0000   1.0000   1.0000   1.0000
     1.0352   1.0352  -0.0000  -0.0000  -0.0000  -0.0000  -0.0000  -0.0000
    -0.0000  -0.0000  -0.0000  -0.0000  -0.0000  -0.0000

          k = 0.1667 0.3333 0.0000 (  5389 PWs)   bands (ev):

   -79.3821 -79.3821 -79.3815 -79.3815 -46.2220 -46.2220 -46.2173 -46.2173
   -32.7597 -32.7597 -32.7549 -32.7549 -32.6188 -32.6188 -32.6119 -32.6119
    -6.6474  -6.6474  -6.0216  -6.0216  -5.3046  -5.3046  -5.0289  -5.0289
     4.6237   4.6237   5.6466   5.6466   6.0887   6.0887   6.2442   6.2442
     7.0632   7.0632   7.3232   7.3232   8.5267   8.5267   8.6636   8.6636
     9.3747   9.3747   9.4385   9.4385  10.2225  10.2225  11.0109  11.0109
    11.5596  11.5596  11.8964  11.8964  12.1855  12.1855  12.5192  12.5192
    13.1658  13.1658  14.3215  14.3215  15.9820  15.9820  17.3277  17.3277
    17.7059  17.7059  18.2182  18.2182  19.9711  19.9711

     occupation numbers 
     1.0000   1.0000   1.0000   1.0000   1.0000   1.0000   1.0000   1.0000
     1.0000   1.0000   1.0000   1.0000   1.0000   1.0000   1.0000   1.0000
     1.0000   1.0000   1.0000   1.0000   1.0000   1.0000   1.0000   1.0000
     1.0000   1.0000   1.0000   1.0000   1.0000   1.0000   1.0000   1.0000
     1.0000   1.0000   1.0000   1.0000   1.0000   1.0000   1.0000   1.0000
     1.0000   1.0000   1.0000   1.0000   1.0000   1.0000   1.0000   1.0000
     1.0000   1.0000   1.0000   1.0000   1.0000   1.0000   1.0000   1.0000
     1.0000   1.0000  -0.0000  -0.0000  -0.0000  -0.0000  -0.0000  -0.0000
    -0.0000  -0.0000  -0.0000  -0.0000  -0.0000  -0.0000

          k = 0.1667 0.3333 0.2375 (  5376 PWs)   bands (ev):

   -79.3815 -79.3815 -79.3810 -79.3810 -46.2245 -46.2245 -46.2204 -46.2204
   -32.7755 -32.7755 -32.7620 -32.7620 -32.6280 -32.6280 -32.6154 -32.6154
    -6.4361  -6.4361  -5.8467  -5.8467  -5.4118  -5.4118  -5.1472  -5.1472
     4.8982   4.8982   5.9287   5.9287   6.1328   6.1328   6.2083   6.2083
     7.2958   7.2958   7.5768   7.5768   7.8629   7.8629   8.2522   8.2522
     8.9579   8.9579   9.4932   9.4932  10.1578  10.1578  10.7290  10.7290
    11.8044  11.8044  12.0481  12.0481  12.4178  12.4178  12.8544  12.8544
    13.3191  13.3191  14.1405  14.1405  16.2037  16.2037  16.5283  16.5283
    17.1691  17.1691  18.1913  18.1913  20.5901  20.5901

     occupation numbers 
     1.0000   1.0000   1.0000   1.0000   1.0000   1.0000   1.0000   1.0000
     1.0000   1.0000   1.0000   1.0000   1.0000   1.0000   1.0000   1.0000
     1.0000   1.0000   1.0000   1.0000   1.0000   1.0000   1.0000   1.0000
     1.0000   1.0000   1.0000   1.0000   1.0000   1.0000   1.0000   1.0000
     1.0000   1.0000   1.0000   1.0000   1.0000   1.0000   1.0000   1.0000
     1.0000   1.0000   1.0000   1.0000   1.0000   1.0000   1.0000   1.0000
     1.0000   1.0000   1.0000   1.0000   1.0000   1.0000   1.0000   1.0000
     1.0000   1.0000  -0.0000  -0.0000  -0.0000  -0.0000  -0.0000  -0.0000
    -0.0000  -0.0000  -0.0000  -0.0000  -0.0000  -0.0000

          k = 0.1667 0.3333 0.4749 (  5375 PWs)   bands (ev):

   -79.3802 -79.3802 -79.3799 -79.3799 -46.2294 -46.2294 -46.2267 -46.2267
   -32.8083 -32.8083 -32.7861 -32.7861 -32.6368 -32.6368 -32.6203 -32.6203
    -5.9990  -5.9990  -5.6612  -5.6612  -5.4735  -5.4735  -5.3274  -5.3274
     5.4981   5.4981   5.9595   5.9595   6.1540   6.1540   6.3443   6.3443
     6.8344   6.8344   7.3586   7.3586   8.1676   8.1676   8.5356   8.5356
     8.9127   8.9127   9.3296   9.3296   9.7716   9.7716  10.8046  10.8046
    11.3551  11.3551  12.1214  12.1214  12.4087  12.4087  12.8473  12.8473
    13.6215  13.6215  14.2237  14.2237  15.3327  15.3327  16.0150  16.0150
    17.2421  17.2421  18.1518  18.1518  21.7897  21.7897

     occupation numbers 
     1.0000   1.0000   1.0000   1.0000   1.0000   1.0000   1.0000   1.0000
     1.0000   1.0000   1.0000   1.0000   1.0000   1.0000   1.0000   1.0000
     1.0000   1.0000   1.0000   1.0000   1.0000   1.0000   1.0000   1.0000
     1.0000   1.0000   1.0000   1.0000   1.0000   1.0000   1.0000   1.0000
     1.0000   1.0000   1.0000   1.0000   1.0000   1.0000   1.0000   1.0000
     1.0000   1.0000   1.0000   1.0000   1.0000   1.0000   1.0000   1.0000
     1.0000   1.0000   1.0000   1.0000   1.0000   1.0000   1.0000   1.0000
     1.0003   1.0003  -0.0000  -0.0000  -0.0000  -0.0000  -0.0000  -0.0000
    -0.0000  -0.0000  -0.0000  -0.0000  -0.0000  -0.0000

          k = 0.1667 0.3333-0.7124 (  5364 PWs)   bands (ev):

   -79.3795 -79.3795 -79.3795 -79.3795 -46.2316 -46.2316 -46.2301 -46.2301
   -32.8257 -32.8257 -32.8013 -32.8013 -32.6376 -32.6376 -32.6217 -32.6217
    -5.8307  -5.8307  -5.7241  -5.7241  -5.4333  -5.4333  -5.2499  -5.2499
     5.4838   5.4838   5.8252   5.8252   6.0622   6.0622   6.2190   6.2190
     7.0115   7.0115   7.9635   7.9635   8.3134   8.3134   8.6304   8.6304
     8.9078   8.9078   9.5499   9.5499   9.6559   9.6559  10.3196  10.3196
    11.5233  11.5233  11.8873  11.8873  12.0352  12.0352  12.5225  12.5225
    13.8164  13.8164  14.4875  14.4875  14.9914  14.9914  15.6697  15.6697
    17.4651  17.4651  18.2003  18.2003  22.9926  22.9926

     occupation numbers 
     1.0000   1.0000   1.0000   1.0000   1.0000   1.0000   1.0000   1.0000
     1.0000   1.0000   1.0000   1.0000   1.0000   1.0000   1.0000   1.0000
     1.0000   1.0000   1.0000   1.0000   1.0000   1.0000   1.0000   1.0000
     1.0000   1.0000   1.0000   1.0000   1.0000   1.0000   1.0000   1.0000
     1.0000   1.0000   1.0000   1.0000   1.0000   1.0000   1.0000   1.0000
     1.0000   1.0000   1.0000   1.0000   1.0000   1.0000   1.0000   1.0000
     1.0000   1.0000   1.0000   1.0000   1.0000   1.0000   1.0000   1.0000
     0.4203   0.4203  -0.0000  -0.0000  -0.0000  -0.0000  -0.0000  -0.0000
    -0.0000  -0.0000  -0.0000  -0.0000  -0.0000  -0.0000

          k = 0.1667-0.5000 0.0000 (  5372 PWs)   bands (ev):

   -79.3818 -79.3818 -79.3818 -79.3818 -46.2197 -46.2197 -46.2197 -46.2197
   -32.7569 -32.7569 -32.7569 -32.7569 -32.6159 -32.6159 -32.6159 -32.6159
    -6.3186  -6.3186  -6.3186  -6.3186  -5.2035  -5.2035  -5.2035  -5.2035
     5.1931   5.1931   5.1931   5.1931   6.1639   6.1639   6.1639   6.1639
     7.6398   7.6398   7.6398   7.6398   8.2732   8.2732   8.2732   8.2732
     8.9509   8.9509   8.9509   8.9509  10.5489  10.5489  10.5489  10.5489
    11.9888  11.9888  11.9888  11.9888  12.3350  12.3350  12.3350  12.3350
    13.7612  13.7612  13.7612  13.7612  17.0040  17.0040  17.0040  17.0040
    17.5642  17.5642  17.5642  17.5642  21.1087  21.1087

     occupation numbers 
     1.0000   1.0000   1.0000   1.0000   1.0000   1.0000   1.0000   1.0000
     1.0000   1.0000   1.0000   1.0000   1.0000   1.0000   1.0000   1.0000
     1.0000   1.0000   1.0000   1.0000   1.0000   1.0000   1.0000   1.0000
     1.0000   1.0000   1.0000   1.0000   1.0000   1.0000   1.0000   1.0000
     1.0000   1.0000   1.0000   1.0000   1.0000   1.0000   1.0000   1.0000
     1.0000   1.0000   1.0000   1.0000   1.0000   1.0000   1.0000   1.0000
     1.0000   1.0000   1.0000   1.0000   1.0000   1.0000   1.0000   1.0000
     0.9655   0.9655   0.9655   0.9655  -0.0000  -0.0000  -0.0000  -0.0000
    -0.0000  -0.0000  -0.0000  -0.0000  -0.0000  -0.0000

          k = 0.1667-0.5000 0.2375 (  5376 PWs)   bands (ev):

   -79.3812 -79.3812 -79.3812 -79.3812 -46.2229 -46.2229 -46.2220 -46.2220
   -32.7758 -32.7758 -32.7612 -32.7612 -32.6270 -32.6270 -32.6172 -32.6172
    -6.1451  -6.1451  -6.1158  -6.1158  -5.3246  -5.3246  -5.2869  -5.2869
     5.3958   5.3958   5.4734   5.4734   6.1991   6.1991   6.2131   6.2131
     7.5801   7.5801   7.6001   7.6001   8.1920   8.1920   8.1942   8.1942
     8.6466   8.6466   8.7254   8.7254  10.4249  10.4249  10.4378  10.4378
    12.0594  12.0594  12.1160  12.1160  12.6326  12.6326  12.7275  12.7275
    13.5607  13.5607  13.7891  13.7891  16.4409  16.4409  16.6466  16.6466
    17.4387  17.4387  17.5029  17.5029  21.6361  21.6378

     occupation numbers 
     1.0000   1.0000   1.0000   1.0000   1.0000   1.0000   1.0000   1.0000
     1.0000   1.0000   1.0000   1.0000   1.0000   1.0000   1.0000   1.0000
     1.0000   1.0000   1.0000   1.0000   1.0000   1.0000   1.0000   1.0000
     1.0000   1.0000   1.0000   1.0000   1.0000   1.0000   1.0000   1.0000
     1.0000   1.0000   1.0000   1.0000   1.0000   1.0000   1.0000   1.0000
     1.0000   1.0000   1.0000   1.0000   1.0000   1.0000   1.0000   1.0000
     1.0000   1.0000   1.0000   1.0000   1.0000   1.0000   1.0000   1.0000
     1.0000   1.0000   0.7462   0.7462  -0.0000  -0.0000  -0.0000  -0.0000
    -0.0000  -0.0000  -0.0000  -0.0000  -0.0000  -0.0000

          k = 0.1667-0.5000 0.4749 (  5382 PWs)   bands (ev):

   -79.3801 -79.3801 -79.3801 -79.3801 -46.2288 -46.2288 -46.2273 -46.2273
   -32.8092 -32.8092 -32.7851 -32.7851 -32.6366 -32.6366 -32.6207 -32.6207
    -5.8169  -5.8169  -5.8145  -5.8145  -5.4764  -5.4764  -5.3591  -5.3591
     5.7255   5.7255   5.7453   5.7453   6.1875   6.1875   6.3069   6.3069
     6.9870   6.9870   7.0457   7.0457   8.4713   8.4713   8.5778   8.5778
     8.9768   8.9768   9.0544   9.0544  10.2407  10.2407  10.2558  10.2558
    11.8647  11.8647  11.9051  11.9051  12.3362  12.3362  12.6187  12.6187
    13.7451  13.7451  14.1223  14.1223  15.5382  15.5382  15.5912  15.5912
    17.8039  17.8039  17.9068  17.9068  22.5836  22.5849

     occupation numbers 
     1.0000   1.0000   1.0000   1.0000   1.0000   1.0000   1.0000   1.0000
     1.0000   1.0000   1.0000   1.0000   1.0000   1.0000   1.0000   1.0000
     1.0000   1.0000   1.0000   1.0000   1.0000   1.0000   1.0000   1.0000
     1.0000   1.0000   1.0000   1.0000   1.0000   1.0000   1.0000   1.0000
     1.0000   1.0000   1.0000   1.0000   1.0000   1.0000   1.0000   1.0000
     1.0000   1.0000   1.0000   1.0000   1.0000   1.0000   1.0000   1.0000
     1.0000   1.0000   1.0000   1.0000   1.0000   1.0000   1.0000   1.0000
     1.0196   1.0196  -0.0000  -0.0000  -0.0000  -0.0000  -0.0000  -0.0000
    -0.0000  -0.0000  -0.0000  -0.0000  -0.0000  -0.0000

          k = 0.1667-0.5000-0.7124 (  5348 PWs)   bands (ev):

   -79.3795 -79.3795 -79.3795 -79.3795 -46.2317 -46.2317 -46.2300 -46.2300
   -32.8269 -32.8269 -32.8002 -32.8002 -32.6383 -32.6383 -32.6210 -32.6210
    -5.7975  -5.7975  -5.7858  -5.7858  -5.3993  -5.3993  -5.2469  -5.2469
     5.5323   5.5323   5.5482   5.5482   6.1150   6.1150   6.1858   6.1858
     7.4578   7.4578   7.6567   7.6567   8.2891   8.2891   8.3643   8.3643
     9.2428   9.2428   9.3081   9.3081  10.5397  10.5397  10.5445  10.5445
    11.3704  11.3704  11.3937  11.3937  11.9233  11.9233  12.2673  12.2673
    14.0143  14.0143  14.3644  14.3644  15.1899  15.1899  15.2071  15.2071
    18.0091  18.0091  18.1518  18.1518  23.1676  23.1676

     occupation numbers 
     1.0000   1.0000   1.0000   1.0000   1.0000   1.0000   1.0000   1.0000
     1.0000   1.0000   1.0000   1.0000   1.0000   1.0000   1.0000   1.0000
     1.0000   1.0000   1.0000   1.0000   1.0000   1.0000   1.0000   1.0000
     1.0000   1.0000   1.0000   1.0000   1.0000   1.0000   1.0000   1.0000
     1.0000   1.0000   1.0000   1.0000   1.0000   1.0000   1.0000   1.0000
     1.0000   1.0000   1.0000   1.0000   1.0000   1.0000   1.0000   1.0000
     1.0000   1.0000   1.0000   1.0000   1.0000   1.0000   1.0000   1.0000
    -0.0001  -0.0001  -0.0000  -0.0000  -0.0000  -0.0000  -0.0000  -0.0000
    -0.0000  -0.0000  -0.0000  -0.0000  -0.0000  -0.0000

          k = 0.3333 0.3333 0.0000 (  5393 PWs)   bands (ev):

   -79.3820 -79.3820 -79.3816 -79.3816 -46.2210 -46.2210 -46.2183 -46.2183
   -32.7596 -32.7596 -32.7563 -32.7563 -32.6171 -32.6171 -32.6127 -32.6127
    -6.5471  -6.5471  -6.1849  -6.1849  -5.2320  -5.2320  -5.0019  -5.0019
     4.4007   4.4007   5.1938   5.1938   6.0315   6.0315   6.1533   6.1533
     7.5217   7.5217   7.9213   7.9213   8.8203   8.8203   8.8896   8.8896
     9.6106   9.6106   9.6463   9.6463   9.7770   9.7770  10.7130  10.7130
    11.1728  11.1728  11.6685  11.6685  12.0491  12.0491  12.3466  12.3466
    13.5954  13.5954  14.2264  14.2264  15.9642  15.9642  17.2676  17.2676
    17.5255  17.5255  17.9757  17.9757  20.9117  20.9117

     occupation numbers 
     1.0000   1.0000   1.0000   1.0000   1.0000   1.0000   1.0000   1.0000
     1.0000   1.0000   1.0000   1.0000   1.0000   1.0000   1.0000   1.0000
     1.0000   1.0000   1.0000   1.0000   1.0000   1.0000   1.0000   1.0000
     1.0000   1.0000   1.0000   1.0000   1.0000   1.0000   1.0000   1.0000
     1.0000   1.0000   1.0000   1.0000   1.0000   1.0000   1.0000   1.0000
     1.0000   1.0000   1.0000   1.0000   1.0000   1.0000   1.0000   1.0000
     1.0000   1.0000   1.0000   1.0000   1.0000   1.0000   1.0000   1.0000
     1.0000   1.0000  -0.0000  -0.0000  -0.0000  -0.0000  -0.0000  -0.0000
    -0.0000  -0.0000  -0.0000  -0.0000  -0.0000  -0.0000

          k = 0.3333 0.3333 0.2375 (  5397 PWs)   bands (ev):

   -79.3814 -79.3814 -79.3811 -79.3811 -46.2237 -46.2237 -46.2213 -46.2213
   -32.7744 -32.7744 -32.7640 -32.7640 -32.6258 -32.6258 -32.6171 -32.6171
    -6.3435  -6.3435  -6.0066  -6.0066  -5.3358  -5.3358  -5.1256  -5.1256
     4.6907   4.6907   5.4366   5.4366   6.0463   6.0463   6.1874   6.1874
     7.7403   7.7403   7.8789   7.8789   8.3143   8.3143   8.5950   8.5950
     9.0099   9.0099   9.7297   9.7297   9.8794   9.8794  10.1444  10.1444
    11.6652  11.6652  12.0321  12.0321  12.3686  12.3686  12.6807  12.6807
    13.5241  13.5241  13.9806  13.9806  16.2795  16.2795  16.6771  16.6771
    17.2528  17.2528  17.7144  17.7144  21.3545  21.3545

     occupation numbers 
     1.0000   1.0000   1.0000   1.0000   1.0000   1.0000   1.0000   1.0000
     1.0000   1.0000   1.0000   1.0000   1.0000   1.0000   1.0000   1.0000
     1.0000   1.0000   1.0000   1.0000   1.0000   1.0000   1.0000   1.0000
     1.0000   1.0000   1.0000   1.0000   1.0000   1.0000   1.0000   1.0000
     1.0000   1.0000   1.0000   1.0000   1.0000   1.0000   1.0000   1.0000
     1.0000   1.0000   1.0000   1.0000   1.0000   1.0000   1.0000   1.0000
     1.0000   1.0000   1.0000   1.0000   1.0000   1.0000   1.0000   1.0000
     1.0000   1.0000  -0.0011  -0.0011  -0.0000  -0.0000  -0.0000  -0.0000
    -0.0000  -0.0000  -0.0000  -0.0000  -0.0000  -0.0000

          k = 0.3333 0.3333 0.4749 (  5354 PWs)   bands (ev):

   -79.3801 -79.3801 -79.3800 -79.3800 -46.2289 -46.2289 -46.2272 -46.2272
   -32.8059 -32.8059 -32.7888 -32.7888 -32.6346 -32.6346 -32.6225 -32.6225
    -5.9193  -5.9193  -5.7243  -5.7243  -5.4575  -5.4575  -5.3426  -5.3426
     5.3703   5.3703   5.7193   5.7193   6.1686   6.1686   6.3032   6.3032
     6.8329   6.8329   7.3764   7.3764   8.4044   8.4044   8.6223   8.6223
     8.9947   8.9947   9.5134   9.5134   9.8130   9.8130  10.6568  10.6568
    11.7119  11.7119  12.0329  12.0329  12.3985  12.3985  12.9945  12.9945
    13.2651  13.2651  14.0230  14.0230  15.5496  15.5496  16.3580  16.3580
    17.0148  17.0148  17.8611  17.8611  22.1781  22.1781

     occupation numbers 
     1.0000   1.0000   1.0000   1.0000   1.0000   1.0000   1.0000   1.0000
     1.0000   1.0000   1.0000   1.0000   1.0000   1.0000   1.0000   1.0000
     1.0000   1.0000   1.0000   1.0000   1.0000   1.0000   1.0000   1.0000
     1.0000   1.0000   1.0000   1.0000   1.0000   1.0000   1.0000   1.0000
     1.0000   1.0000   1.0000   1.0000   1.0000   1.0000   1.0000   1.0000
     1.0000   1.0000   1.0000   1.0000   1.0000   1.0000   1.0000   1.0000
     1.0000   1.0000   1.0000   1.0000   1.0000   1.0000   1.0000   1.0000
     1.0000   1.0000  -0.0000  -0.0000  -0.0000  -0.0000  -0.0000  -0.0000
    -0.0000  -0.0000  -0.0000  -0.0000  -0.0000  -0.0000

          k = 0.3333 0.3333-0.7124 (  5358 PWs)   bands (ev):

   -79.3795 -79.3795 -79.3795 -79.3795 -46.2315 -46.2315 -46.2303 -46.2303
   -32.8230 -32.8230 -32.8040 -32.8040 -32.6360 -32.6360 -32.6237 -32.6237
    -5.7903  -5.7903  -5.6372  -5.6372  -5.5039  -5.5039  -5.2963  -5.2963
     5.5175   5.5175   5.9002   5.9002   6.0474   6.0474   6.3566   6.3566
     6.4816   6.4816   7.7184   7.7184   8.2033   8.2033   8.3265   8.3265
     9.3540   9.3540   9.6932   9.6932  10.0367  10.0367  10.7471  10.7471
    11.4903  11.4903  11.9165  11.9165  12.0948  12.0948  12.7878  12.7878
    13.3734  13.3734  14.2754  14.2754  15.1668  15.1668  16.0887  16.0887
    17.0401  17.0401  18.0068  18.0068  23.0305  23.0306

     occupation numbers 
     1.0000   1.0000   1.0000   1.0000   1.0000   1.0000   1.0000   1.0000
     1.0000   1.0000   1.0000   1.0000   1.0000   1.0000   1.0000   1.0000
     1.0000   1.0000   1.0000   1.0000   1.0000   1.0000   1.0000   1.0000
     1.0000   1.0000   1.0000   1.0000   1.0000   1.0000   1.0000   1.0000
     1.0000   1.0000   1.0000   1.0000   1.0000   1.0000   1.0000   1.0000
     1.0000   1.0000   1.0000   1.0000   1.0000   1.0000   1.0000   1.0000
     1.0000   1.0000   1.0000   1.0000   1.0000   1.0000   1.0000   1.0000
     1.0000   1.0000  -0.0000  -0.0000  -0.0000  -0.0000  -0.0000  -0.0000
    -0.0000  -0.0000  -0.0000  -0.0000  -0.0000  -0.0000

          k = 0.3333-0.5000 0.0000 (  5386 PWs)   bands (ev):

   -79.3818 -79.3818 -79.3818 -79.3818 -46.2197 -46.2197 -46.2197 -46.2197
   -32.7583 -32.7583 -32.7583 -32.7583 -32.6147 -32.6147 -32.6147 -32.6147
    -6.3838  -6.3838  -6.3838  -6.3838  -5.0904  -5.0904  -5.0904  -5.0904
     4.6217   4.6217   4.6217   4.6217   6.0578   6.0578   6.0578   6.0578
     8.1515   8.1515   8.1515   8.1515   8.9981   8.9981   8.9981   8.9981
     9.3773   9.3773   9.3773   9.3773  10.1130  10.1130  10.1130  10.1130
    11.5398  11.5398  11.5398  11.5398  11.9856  11.9856  11.9856  11.9856
    13.9705  13.9705  13.9705  13.9705  16.4804  16.4804  16.4804  16.4804
    17.8047  17.8047  17.8047  17.8047  21.8226  21.8226

     occupation numbers 
     1.0000   1.0000   1.0000   1.0000   1.0000   1.0000   1.0000   1.0000
     1.0000   1.0000   1.0000   1.0000   1.0000   1.0000   1.0000   1.0000
     1.0000   1.0000   1.0000   1.0000   1.0000   1.0000   1.0000   1.0000
     1.0000   1.0000   1.0000   1.0000   1.0000   1.0000   1.0000   1.0000
     1.0000   1.0000   1.0000   1.0000   1.0000   1.0000   1.0000   1.0000
     1.0000   1.0000   1.0000   1.0000   1.0000   1.0000   1.0000   1.0000
     1.0000   1.0000   1.0000   1.0000   1.0000   1.0000   1.0000   1.0000
    -0.0021  -0.0021  -0.0021  -0.0021  -0.0000  -0.0000  -0.0000  -0.0000
    -0.0000  -0.0000  -0.0000  -0.0000  -0.0000  -0.0000

          k = 0.3333-0.5000 0.2375 (  5388 PWs)   bands (ev):

   -79.3812 -79.3812 -79.3812 -79.3812 -46.2227 -46.2227 -46.2222 -46.2222
   -32.7737 -32.7737 -32.7653 -32.7653 -32.6241 -32.6241 -32.6185 -32.6185
    -6.2012  -6.2012  -6.1851  -6.1851  -5.2168  -5.2168  -5.1936  -5.1936
     4.8723   4.8723   4.9140   4.9140   6.0784   6.0784   6.0837   6.0837
     8.1349   8.1349   8.1402   8.1402   8.6446   8.6446   8.6551   8.6551
     9.2543   9.2543   9.2943   9.2943   9.7807   9.7807   9.7942   9.7942
    11.9105  11.9105  11.9352  11.9352  12.3699  12.3699  12.4386  12.4386
    13.6964  13.6964  13.7896  13.7896  16.5430  16.5430  16.7196  16.7196
    17.2584  17.2584  17.3695  17.3695  22.1532  22.1571

     occupation numbers 
     1.0000   1.0000   1.0000   1.0000   1.0000   1.0000   1.0000   1.0000
     1.0000   1.0000   1.0000   1.0000   1.0000   1.0000   1.0000   1.0000
     1.0000   1.0000   1.0000   1.0000   1.0000   1.0000   1.0000   1.0000
     1.0000   1.0000   1.0000   1.0000   1.0000   1.0000   1.0000   1.0000
     1.0000   1.0000   1.0000   1.0000   1.0000   1.0000   1.0000   1.0000
     1.0000   1.0000   1.0000   1.0000   1.0000   1.0000   1.0000   1.0000
     1.0000   1.0000   1.0000   1.0000   1.0000   1.0000   1.0000   1.0000
     1.0199   1.0199   0.7412   0.7412  -0.0000  -0.0000  -0.0000  -0.0000
    -0.0000  -0.0000  -0.0000  -0.0000  -0.0000  -0.0000

          k = 0.3333-0.5000 0.4749 (  5360 PWs)   bands (ev):

   -79.3801 -79.3801 -79.3801 -79.3801 -46.2285 -46.2285 -46.2276 -46.2276
   -32.8044 -32.8044 -32.7905 -32.7905 -32.6332 -32.6332 -32.6240 -32.6240
    -5.8189  -5.8189  -5.8186  -5.8186  -5.4335  -5.4335  -5.3641  -5.3641
     5.4488   5.4488   5.4741   5.4741   6.1377   6.1377   6.2378   6.2378
     7.1051   7.1051   7.1581   7.1581   8.5711   8.5711   8.6420   8.6420
     9.2647   9.2647   9.2791   9.2791  10.2138  10.2138  10.2318  10.2318
    12.0427  12.0427  12.0487  12.0487  12.4219  12.4219  12.6783  12.6783
    13.4555  13.4555  13.7469  13.7469  15.9924  15.9924  16.0438  16.0438
    17.3808  17.3808  17.4160  17.4160  22.7557  22.7571

     occupation numbers 
     1.0000   1.0000   1.0000   1.0000   1.0000   1.0000   1.0000   1.0000
     1.0000   1.0000   1.0000   1.0000   1.0000   1.0000   1.0000   1.0000
     1.0000   1.0000   1.0000   1.0000   1.0000   1.0000   1.0000   1.0000
     1.0000   1.0000   1.0000   1.0000   1.0000   1.0000   1.0000   1.0000
     1.0000   1.0000   1.0000   1.0000   1.0000   1.0000   1.0000   1.0000
     1.0000   1.0000   1.0000   1.0000   1.0000   1.0000   1.0000   1.0000
     1.0000   1.0000   1.0000   1.0000   1.0000   1.0000   1.0000   1.0000
     1.0000   1.0000   1.0158   1.0158  -0.0000  -0.0000  -0.0000  -0.0000
    -0.0000  -0.0000  -0.0000  -0.0000  -0.0000  -0.0000

          k = 0.3333-0.5000-0.7124 (  5364 PWs)   bands (ev):

   -79.3795 -79.3795 -79.3795 -79.3795 -46.2314 -46.2314 -46.2304 -46.2304
   -32.8212 -32.8212 -32.8058 -32.8058 -32.6350 -32.6350 -32.6250 -32.6250
    -5.7192  -5.7192  -5.6810  -5.6810  -5.4711  -5.4711  -5.3512  -5.3512
     5.6668   5.6668   5.7461   5.7461   5.9814   5.9814   6.2111   6.2111
     6.9894   6.9894   7.0713   7.0713   8.1988   8.1988   8.3195   8.3195
     9.5739   9.5739   9.5856   9.5856  10.5884  10.5884  10.5969  10.5969
    11.8155  11.8155  11.9057  11.9057  12.0919  12.0919  12.4592  12.4592
    13.6293  13.6293  13.9333  13.9333  15.6591  15.6591  15.6606  15.6606
    17.4566  17.4566  17.5359  17.5359  23.1395  23.1407

     occupation numbers 
     1.0000   1.0000   1.0000   1.0000   1.0000   1.0000   1.0000   1.0000
     1.0000   1.0000   1.0000   1.0000   1.0000   1.0000   1.0000   1.0000
     1.0000   1.0000   1.0000   1.0000   1.0000   1.0000   1.0000   1.0000
     1.0000   1.0000   1.0000   1.0000   1.0000   1.0000   1.0000   1.0000
     1.0000   1.0000   1.0000   1.0000   1.0000   1.0000   1.0000   1.0000
     1.0000   1.0000   1.0000   1.0000   1.0000   1.0000   1.0000   1.0000
     1.0000   1.0000   1.0000   1.0000   1.0000   1.0000   1.0000   1.0000
     1.0006   1.0006  -0.0139  -0.0139  -0.0000  -0.0000  -0.0000  -0.0000
    -0.0000  -0.0000  -0.0000  -0.0000  -0.0000  -0.0000

          k =-0.5000-0.5000 0.0000 (  5412 PWs)   bands (ev):

   -79.3818 -79.3818 -79.3818 -79.3818 -46.2197 -46.2197 -46.2197 -46.2197
   -32.7589 -32.7589 -32.7589 -32.7589 -32.6141 -32.6141 -32.6141 -32.6141
    -6.4129  -6.4129  -6.4129  -6.4129  -5.0369  -5.0369  -5.0369  -5.0369
     4.3992   4.3992   4.3992   4.3992   6.0117   6.0117   6.0117   6.0117
     8.7371   8.7371   8.7371   8.7371   8.7775   8.7775   8.7775   8.7775
     9.5939   9.5939   9.5939   9.5939  10.3594  10.3594  10.3594  10.3594
    11.1222  11.1222  11.1222  11.1222  11.7473  11.7473  11.7473  11.7473
    14.0542  14.0542  14.0542  14.0542  16.2368  16.2368  16.2368  16.2368
    17.9272  17.9272  17.9272  17.9272  22.3952  22.8032

     occupation numbers 
     1.0000   1.0000   1.0000   1.0000   1.0000   1.0000   1.0000   1.0000
     1.0000   1.0000   1.0000   1.0000   1.0000   1.0000   1.0000   1.0000
     1.0000   1.0000   1.0000   1.0000   1.0000   1.0000   1.0000   1.0000
     1.0000   1.0000   1.0000   1.0000   1.0000   1.0000   1.0000   1.0000
     1.0000   1.0000   1.0000   1.0000   1.0000   1.0000   1.0000   1.0000
     1.0000   1.0000   1.0000   1.0000   1.0000   1.0000   1.0000   1.0000
     1.0000   1.0000   1.0000   1.0000   1.0000   1.0000   1.0000   1.0000
    -0.0000  -0.0000  -0.0000  -0.0000  -0.0000  -0.0000  -0.0000  -0.0000
    -0.0000  -0.0000  -0.0000  -0.0000  -0.0000  -0.0000

          k =-0.5000-0.5000 0.2375 (  5384 PWs)   bands (ev):

   -79.3812 -79.3812 -79.3812 -79.3812 -46.2225 -46.2225 -46.2225 -46.2225
   -32.7700 -32.7700 -32.7700 -32.7700 -32.6209 -32.6209 -32.6209 -32.6209
    -6.2204  -6.2204  -6.2204  -6.2204  -5.1587  -5.1587  -5.1587  -5.1587
     4.6866   4.6866   4.6866   4.6866   6.0229   6.0229   6.0229   6.0229
     8.5357   8.5357   8.5357   8.5357   8.9294   8.9294   8.9294   8.9294
     9.1344   9.1344   9.1344   9.1344   9.7624   9.7624   9.7624   9.7624
    11.6978  11.6978  11.6978  11.6978  12.3223  12.3223  12.3223  12.3223
    13.7678  13.7678  13.7678  13.7678  16.5482  16.5482  16.5482  16.5482
    17.3655  17.3655  17.3655  17.3655  22.7716  22.7716

     occupation numbers 
     1.0000   1.0000   1.0000   1.0000   1.0000   1.0000   1.0000   1.0000
     1.0000   1.0000   1.0000   1.0000   1.0000   1.0000   1.0000   1.0000
     1.0000   1.0000   1.0000   1.0000   1.0000   1.0000   1.0000   1.0000
     1.0000   1.0000   1.0000   1.0000   1.0000   1.0000   1.0000   1.0000
     1.0000   1.0000   1.0000   1.0000   1.0000   1.0000   1.0000   1.0000
     1.0000   1.0000   1.0000   1.0000   1.0000   1.0000   1.0000   1.0000
     1.0000   1.0000   1.0000   1.0000   1.0000   1.0000   1.0000   1.0000
     0.9285   0.9285   0.9285   0.9285  -0.0000  -0.0000  -0.0000  -0.0000
    -0.0000  -0.0000  -0.0000  -0.0000  -0.0000  -0.0000

          k =-0.5000-0.5000 0.4749 (  5340 PWs)   bands (ev):

   -79.3801 -79.3801 -79.3801 -79.3801 -46.2281 -46.2281 -46.2281 -46.2281
   -32.7976 -32.7976 -32.7976 -32.7976 -32.6286 -32.6286 -32.6286 -32.6286
    -5.8204  -5.8204  -5.8204  -5.8204  -5.3891  -5.3891  -5.3891  -5.3891
     5.3470   5.3470   5.3470   5.3470   6.1403   6.1403   6.1403   6.1403
     7.2192   7.2192   7.2192   7.2192   8.5962   8.5962   8.5962   8.5962
     9.3841   9.3841   9.3841   9.3841  10.2681  10.2681  10.2681  10.2681
    11.9771  11.9771  11.9771  11.9771  12.8637  12.8637  12.8637  12.8637
    13.2938  13.2938  13.2938  13.2938  16.3530  16.3530  16.3530  16.3530
    17.0556  17.0556  17.0556  17.0556  23.0689  23.0689

     occupation numbers 
     1.0000   1.0000   1.0000   1.0000   1.0000   1.0000   1.0000   1.0000
     1.0000   1.0000   1.0000   1.0000   1.0000   1.0000   1.0000   1.0000
     1.0000   1.0000   1.0000   1.0000   1.0000   1.0000   1.0000   1.0000
     1.0000   1.0000   1.0000   1.0000   1.0000   1.0000   1.0000   1.0000
     1.0000   1.0000   1.0000   1.0000   1.0000   1.0000   1.0000   1.0000
     1.0000   1.0000   1.0000   1.0000   1.0000   1.0000   1.0000   1.0000
     1.0000   1.0000   1.0000   1.0000   1.0000   1.0000   1.0000   1.0000
     1.0000   1.0000   1.0000   1.0000  -0.0000  -0.0000  -0.0000  -0.0000
    -0.0000  -0.0000  -0.0000  -0.0000  -0.0000  -0.0000

          k =-0.5000-0.5000-0.7124 (  5384 PWs)   bands (ev):

   -79.3795 -79.3795 -79.3795 -79.3795 -46.2309 -46.2309 -46.2309 -46.2309
   -32.8135 -32.8135 -32.8135 -32.8135 -32.6301 -32.6301 -32.6301 -32.6301
    -5.6283  -5.6283  -5.6283  -5.6283  -5.4812  -5.4812  -5.4812  -5.4812
     5.7400   5.7400   5.7400   5.7400   6.2396   6.2396   6.2396   6.2396
     6.6658   6.6658   6.6658   6.6658   8.2638   8.2638   8.2638   8.2638
     9.6584   9.6584   9.6584   9.6584  10.6677  10.6677  10.6677  10.6677
    11.9400  11.9400  11.9400  11.9400  12.6167  12.6167  12.6167  12.6167
    13.4495  13.4495  13.4495  13.4495  16.0754  16.0754  16.0754  16.0754
    17.0251  17.0251  17.0251  17.0251  23.0647  23.0647

     occupation numbers 
     1.0000   1.0000   1.0000   1.0000   1.0000   1.0000   1.0000   1.0000
     1.0000   1.0000   1.0000   1.0000   1.0000   1.0000   1.0000   1.0000
     1.0000   1.0000   1.0000   1.0000   1.0000   1.0000   1.0000   1.0000
     1.0000   1.0000   1.0000   1.0000   1.0000   1.0000   1.0000   1.0000
     1.0000   1.0000   1.0000   1.0000   1.0000   1.0000   1.0000   1.0000
     1.0000   1.0000   1.0000   1.0000   1.0000   1.0000   1.0000   1.0000
     1.0000   1.0000   1.0000   1.0000   1.0000   1.0000   1.0000   1.0000
     1.0000   1.0000   1.0000   1.0000  -0.0000  -0.0000  -0.0000  -0.0000
    -0.0000  -0.0000  -0.0000  -0.0000  -0.0000  -0.0000

     the Fermi energy is    13.8100 ev

!    total energy              =    -553.08013962 Ry
     estimated scf accuracy    <          3.1E-11 Ry
     smearing contrib. (-TS)   =      -0.00012533 Ry
     internal energy E=F+TS    =    -553.08001429 Ry

     The total energy is F=E-TS. E is the sum of the following terms:
     one-electron contribution =    -190.91119732 Ry
     hartree contribution      =     122.73168946 Ry
     xc contribution           =     -69.91449591 Ry
     ewald contribution        =    -414.98601052 Ry

     convergence has been achieved in  10 iterations

     Forces acting on atoms (cartesian axes, Ry/au):

     atom    1 type  2   force =     0.00000000    0.00000000    0.00000000
     atom    2 type  2   force =     0.00000000    0.00000000    0.00000000
     atom    3 type  1   force =     0.00062466   -0.00062466   -0.00000000
     atom    4 type  1   force =    -0.00062466   -0.00062466    0.00000000
     atom    5 type  1   force =     0.00062466    0.00062466    0.00000000
     atom    6 type  1   force =    -0.00062466    0.00062466   -0.00000000
     The non-local contrib.  to forces
     atom    1 type  2   force =     0.00000000    0.00000000   -0.00000000
     atom    2 type  2   force =     0.00000000    0.00000000    0.00000000
     atom    3 type  1   force =    -0.05378271    0.05378271    0.00000000
     atom    4 type  1   force =     0.05378271    0.05378271    0.00000000
     atom    5 type  1   force =    -0.05378271   -0.05378271    0.00000000
     atom    6 type  1   force =     0.05378271   -0.05378271    0.00000000
     The ionic contribution  to forces
     atom    1 type  2   force =    -0.00000000   -0.00000000    0.00000000
     atom    2 type  2   force =     0.00000000    0.00000000   -0.00000000
     atom    3 type  1   force =     1.42937233   -1.42937233    0.00000000
     atom    4 type  1   force =    -1.42937233   -1.42937233   -0.00000000
     atom    5 type  1   force =     1.42937233    1.42937233    0.00000000
     atom    6 type  1   force =    -1.42937233    1.42937233    0.00000000
     The local contribution  to forces
     atom    1 type  2   force =     0.00000000   -0.00000000    0.00000000
     atom    2 type  2   force =     0.00000000    0.00000000    0.00000000
     atom    3 type  1   force =    -1.37496418    1.37496418    0.00000000
     atom    4 type  1   force =     1.37496418    1.37496418    0.00000000
     atom    5 type  1   force =    -1.37496418   -1.37496418    0.00000000
     atom    6 type  1   force =     1.37496418   -1.37496418    0.00000000
     The core correction contribution to forces
     atom    1 type  2   force =     0.00000000    0.00000000    0.00000000
     atom    2 type  2   force =     0.00000000    0.00000000    0.00000000
     atom    3 type  1   force =     0.00000000    0.00000000    0.00000000
     atom    4 type  1   force =     0.00000000    0.00000000    0.00000000
     atom    5 type  1   force =     0.00000000    0.00000000    0.00000000
     atom    6 type  1   force =     0.00000000    0.00000000    0.00000000
     The Hubbard contrib.    to forces
     atom    1 type  2   force =     0.00000000    0.00000000    0.00000000
     atom    2 type  2   force =     0.00000000    0.00000000    0.00000000
     atom    3 type  1   force =     0.00000000    0.00000000    0.00000000
     atom    4 type  1   force =     0.00000000    0.00000000    0.00000000
     atom    5 type  1   force =     0.00000000    0.00000000    0.00000000
     atom    6 type  1   force =     0.00000000    0.00000000    0.00000000
     The SCF correction term to forces
     atom    1 type  2   force =     0.00000000    0.00000000   -0.00000000
     atom    2 type  2   force =     0.00000000    0.00000000   -0.00000000
     atom    3 type  1   force =    -0.00000078    0.00000078   -0.00000000
     atom    4 type  1   force =     0.00000078    0.00000078    0.00000000
     atom    5 type  1   force =    -0.00000078   -0.00000078    0.00000000
     atom    6 type  1   force =     0.00000078   -0.00000078   -0.00000000

     Total force =     0.001767     Total SCF correction =     0.000002


     Computing stress (Cartesian axis) and pressure

          total   stress  (Ry/bohr**3)                   (kbar)     P=      -20.51
  -0.00012343   0.00000000   0.00000000          -18.16        0.00        0.00
   0.00000000  -0.00012343   0.00000000            0.00      -18.16        0.00
   0.00000000   0.00000000  -0.00017135            0.00        0.00      -25.21

     kinetic stress (kbar)  48456.28      0.00      0.00
                                0.00  48456.28      0.00
                                0.00      0.00  47521.32

     local   stress (kbar) -12690.26     -0.00     -0.00
                               -0.00 -12690.26     -0.00
                               -0.00     -0.00 -44393.09

     nonloc. stress (kbar)  14528.64      0.00      0.00
                                0.00  14528.64      0.00
                                0.00      0.00  14740.22

     hartree stress (kbar)   9611.55     -0.00     -0.00
                               -0.00   9611.55     -0.00
                               -0.00     -0.00  21377.29

     exc-cor stress (kbar)  -7288.16     -0.00      0.00
                               -0.00  -7288.16     -0.00
                                0.00     -0.00  -7263.49

     corecor stress (kbar)      0.00      0.00      0.00
                                0.00      0.00      0.00
                                0.00      0.00      0.00

     ewald   stress (kbar) -52636.21     -0.00     -0.00
                               -0.00 -52636.21     -0.00
                               -0.00     -0.00 -32007.45

     hubbard stress (kbar)      0.00      0.00      0.00
                                0.00      0.00      0.00
                                0.00      0.00      0.00

     DFT-D   stress (kbar)      0.00      0.00      0.00
                                0.00      0.00      0.00
                                0.00      0.00      0.00

     XDM     stress (kbar)      0.00      0.00      0.00
                                0.00      0.00      0.00
                                0.00      0.00      0.00

     dft-nl  stress (kbar)      0.00      0.00      0.00
                                0.00      0.00      0.00
                                0.00      0.00      0.00

     TS-vdW  stress (kbar)      0.00      0.00      0.00
                                0.00      0.00      0.00
                                0.00      0.00      0.00


                                0.00      0.00      0.00
                                0.00      0.00      0.00


                                0.00      0.00      0.00


     Writing all to output data dir tmp/espresso.save/
 
     init_run     :      4.06s CPU      2.12s WALL (       1 calls)
     electrons    :    139.13s CPU     71.33s WALL (       1 calls)
     forces       :      7.01s CPU      3.59s WALL (       1 calls)
     stress       :      9.83s CPU      4.97s WALL (       1 calls)

     Called by init_run:
     wfcinit      :      4.00s CPU      2.06s WALL (       1 calls)
     wfcinit:atom :      0.01s CPU      0.01s WALL (      40 calls)
     wfcinit:wfcr :      3.89s CPU      2.00s WALL (      40 calls)
     potinit      :      0.02s CPU      0.01s WALL (       1 calls)
     hinit0       :      0.04s CPU      0.03s WALL (       1 calls)

     Called by electrons:
     c_bands      :    127.69s CPU     65.44s WALL (      10 calls)
     sum_band     :     11.30s CPU      5.80s WALL (      10 calls)
     v_of_rho     :      0.05s CPU      0.03s WALL (      11 calls)
     v_h          :      0.00s CPU      0.00s WALL (      11 calls)
     v_xc         :      0.04s CPU      0.02s WALL (      11 calls)
     mix_rho      :      0.05s CPU      0.02s WALL (      10 calls)

     Called by c_bands:
     init_us_2    :      0.37s CPU      0.20s WALL (     920 calls)
     init_us_2:cp :      0.37s CPU      0.19s WALL (     920 calls)
     cegterg      :    117.82s CPU     60.41s WALL (     400 calls)

     Called by sum_band:
     sum_band:wei :      0.08s CPU      0.04s WALL (      10 calls)
     sum_band:loo :     11.19s CPU      5.75s WALL (      10 calls)
     sum_band:buf :      0.06s CPU      0.03s WALL (     400 calls)
     sum_band:ini :      0.12s CPU      0.06s WALL (     400 calls)

     Called by *egterg:
     cdiaghg      :     17.78s CPU      9.04s WALL (    1424 calls)
     cegterg:over :      7.45s CPU      3.78s WALL (    1024 calls)
     cegterg:upda :      5.87s CPU      2.99s WALL (    1024 calls)
     cegterg:last :     10.04s CPU      5.11s WALL (     800 calls)
     cdiaghg:chol :      0.84s CPU      0.43s WALL (    1424 calls)
     cdiaghg:inve :      0.15s CPU      0.08s WALL (    1424 calls)
     cdiaghg:para :      1.83s CPU      0.94s WALL (    2848 calls)
     h_psi        :     77.51s CPU     39.92s WALL (    1464 calls)
     g_psi        :      0.11s CPU      0.06s WALL (    1024 calls)

     Called by h_psi:
     h_psi:calbec :      9.40s CPU      4.94s WALL (    1464 calls)
     vloc_psi     :     54.53s CPU     28.06s WALL (    1464 calls)
     add_vuspsi   :     13.41s CPU      6.83s WALL (    1464 calls)

     General routines
     calbec       :     11.77s CPU      6.17s WALL (    1664 calls)
     fft          :      0.07s CPU      0.03s WALL (     150 calls)
     ffts         :      0.01s CPU      0.01s WALL (      40 calls)
     fftw         :     61.58s CPU     31.68s WALL (  343648 calls)
 
     Parallel routines
 
     PWSCF        :   2m45.18s CPU   1m27.74s WALL

 
   This run was terminated on:  10:25:13  10Apr2022            

=------------------------------------------------------------------------------=
   JOB DONE.
=------------------------------------------------------------------------------=
