
     Program PWSCF v.7.0 starts on 10Apr2022 at 11:12:43 

     This program is part of the open-source Quantum ESPRESSO suite
     for quantum simulation of materials; please cite
         "P. Giannozzi et al., J. Phys.:Condens. Matter 21 395502 (2009);
         "P. Giannozzi et al., J. Phys.:Condens. Matter 29 465901 (2017);
         "P. Giannozzi et al., J. Chem. Phys. 152 154105 (2020);
          URL http://www.quantum-espresso.org", 
     in publications or presentations arising from this work. More details at
     http://www.quantum-espresso.org/quote

     Parallel version (MPI & OpenMP), running on      64 processor cores
     Number of MPI processes:                32
     Threads/MPI process:                     2

     MPI processes distributed on     1 nodes
     R & G space division:  proc/nbgrp/npool/nimage =      32
     230421 MiB available memory on the printing compute node when the environment starts
 
     Reading input from kpoints_229.pwi
Warning: card &CELL ignored
Warning: card / ignored

     Current dimensions of program PWSCF are:
     Max number of different atomic species (ntypx) = 10
     Max number of k-points (npk) =  40000
     Max angular momentum in pseudopotentials (lmaxx) =  4

     Subspace diagonalization in iterative solution of the eigenvalue problem:
     one sub-group per band group will be used
     scalapack distributed-memory algorithm (size of sub-group:  5*  5 procs)

 
     Parallelization info
     --------------------
     sticks:   dense  smooth     PW     G-vecs:    dense   smooth      PW
     Min          58      58     17                 1342     1342     210
     Max          59      59     19                 1345     1345     212
     Sum        1885    1885    553                42999    42999    6747
 
     Using Slab Decomposition
 

     Title: 
     IrO2 Unit Cell                                                             


     bravais-lattice index     =            6
     lattice parameter (alat)  =       8.5888  a.u.
     unit-cell volume          =     444.6868 (a.u.)^3
     number of atoms/cell      =            6
     number of atomic types    =            2
     number of electrons       =        58.00
     number of Kohn-Sham states=           70
     kinetic-energy cutoff     =      80.0000  Ry
     charge density cutoff     =     320.0000  Ry
     scf convergence threshold =      1.0E-09
     mixing beta               =       0.7000
     number of iterations used =            8  plain     mixing
     Exchange-correlation= PBE
                           (   1   4   3   4   0   0   0)
     Non magnetic calculation with spin-orbit


     celldm(1)=   8.588800  celldm(2)=   0.000000  celldm(3)=   0.701870
     celldm(4)=   0.000000  celldm(5)=   0.000000  celldm(6)=   0.000000

     crystal axes: (cart. coord. in units of alat)
               a(1) = (   1.000000   0.000000   0.000000 )  
               a(2) = (   0.000000   1.000000   0.000000 )  
               a(3) = (   0.000000   0.000000   0.701870 )  

     reciprocal axes: (cart. coord. in units 2 pi/alat)
               b(1) = (  1.000000  0.000000  0.000000 )  
               b(2) = (  0.000000  1.000000  0.000000 )  
               b(3) = (  0.000000  0.000000  1.424765 )  


     PseudoPot. # 1 for O  read from file:
     ../../XX_PSEUDO/O_ONCV_PBE_fr.upf
     MD5 check sum: 59c925217d3b58c6d762355590b68b09
     Pseudo is Norm-conserving, Zval =  6.0
     Generated using ONCVPSP code by D. R. Hamann
     Using radial grid of  936 points,  6 beta functions with: 
                l(1) =   0
                l(2) =   0
                l(3) =   1
                l(4) =   1
                l(5) =   1
                l(6) =   1

     PseudoPot. # 2 for Ir read from file:
     ../../XX_PSEUDO/Ir_ONCV_PBE_fr.upf
     MD5 check sum: 924e909c4146afa09f62ee3401806954
     Pseudo is Norm-conserving, Zval = 17.0
     Generated using ONCVPSP code by D. R. Hamann
     Using radial grid of 1310 points, 14 beta functions with: 
                l(1) =   0
                l(2) =   0
                l(3) =   1
                l(4) =   1
                l(5) =   1
                l(6) =   1
                l(7) =   2
                l(8) =   2
                l(9) =   2
               l(10) =   2
               l(11) =   3
               l(12) =   3
               l(13) =   3
               l(14) =   3

     atomic species   valence    mass     pseudopotential
        O              6.00    15.99900     O ( 1.00)
        Ir            17.00   192.21700     Ir( 1.00)

     16 Sym. Ops., with inversion, found ( 8 have fractional translation)


                                    s                        frac. trans.

      isym =  1     identity                                     

 cryst.   s( 1) = (     1          0          0      )
                  (     0          1          0      )
                  (     0          0          1      )

 cart.    s( 1) = (  1.0000000  0.0000000  0.0000000 )
                  (  0.0000000  1.0000000  0.0000000 )
                  (  0.0000000  0.0000000  1.0000000 )


      isym =  2     180 deg rotation - cart. axis [0,0,1]        

 cryst.   s( 2) = (    -1          0          0      )
                  (     0         -1          0      )
                  (     0          0          1      )

 cart.    s( 2) = ( -1.0000000  0.0000000  0.0000000 )
                  (  0.0000000 -1.0000000  0.0000000 )
                  (  0.0000000  0.0000000  1.0000000 )


      isym =  3     180 deg rotation - cart. axis [0,1,0]        

 cryst.   s( 3) = (    -1          0          0      )    f =(  0.5000000 )
                  (     0          1          0      )       ( -0.5000000 )
                  (     0          0         -1      )       (  0.5000000 )

 cart.    s( 3) = ( -1.0000000  0.0000000  0.0000000 )    f =(  0.5000000 )
                  (  0.0000000  1.0000000  0.0000000 )       ( -0.5000000 )
                  (  0.0000000  0.0000000 -1.0000000 )       (  0.3509351 )


      isym =  4     180 deg rotation - cart. axis [1,0,0]        

 cryst.   s( 4) = (     1          0          0      )    f =( -0.5000000 )
                  (     0         -1          0      )       (  0.5000000 )
                  (     0          0         -1      )       (  0.5000000 )

 cart.    s( 4) = (  1.0000000  0.0000000  0.0000000 )    f =( -0.5000000 )
                  (  0.0000000 -1.0000000  0.0000000 )       (  0.5000000 )
                  (  0.0000000  0.0000000 -1.0000000 )       (  0.3509351 )


      isym =  5     180 deg rotation - cart. axis [1,1,0]        

 cryst.   s( 5) = (     0          1          0      )
                  (     1          0          0      )
                  (     0          0         -1      )

 cart.    s( 5) = (  0.0000000  1.0000000  0.0000000 )
                  (  1.0000000  0.0000000  0.0000000 )
                  (  0.0000000  0.0000000 -1.0000000 )


      isym =  6     180 deg rotation - cart. axis [1,-1,0]       

 cryst.   s( 6) = (     0         -1          0      )
                  (    -1          0          0      )
                  (     0          0         -1      )

 cart.    s( 6) = (  0.0000000 -1.0000000  0.0000000 )
                  ( -1.0000000  0.0000000  0.0000000 )
                  (  0.0000000  0.0000000 -1.0000000 )


      isym =  7      90 deg rotation - cart. axis [0,0,-1]       

 cryst.   s( 7) = (     0         -1          0      )    f =( -0.5000000 )
                  (     1          0          0      )       (  0.5000000 )
                  (     0          0          1      )       ( -0.5000000 )

 cart.    s( 7) = (  0.0000000  1.0000000  0.0000000 )    f =( -0.5000000 )
                  ( -1.0000000  0.0000000  0.0000000 )       (  0.5000000 )
                  (  0.0000000  0.0000000  1.0000000 )       ( -0.3509351 )


      isym =  8      90 deg rotation - cart. axis [0,0,1]        

 cryst.   s( 8) = (     0          1          0      )    f =(  0.5000000 )
                  (    -1          0          0      )       ( -0.5000000 )
                  (     0          0          1      )       ( -0.5000000 )

 cart.    s( 8) = (  0.0000000 -1.0000000  0.0000000 )    f =(  0.5000000 )
                  (  1.0000000  0.0000000  0.0000000 )       ( -0.5000000 )
                  (  0.0000000  0.0000000  1.0000000 )       ( -0.3509351 )


      isym =  9     inversion                                    

 cryst.   s( 9) = (    -1          0          0      )
                  (     0         -1          0      )
                  (     0          0         -1      )

 cart.    s( 9) = ( -1.0000000  0.0000000  0.0000000 )
                  (  0.0000000 -1.0000000  0.0000000 )
                  (  0.0000000  0.0000000 -1.0000000 )


      isym = 10     inv. 180 deg rotation - cart. axis [0,0,1]   

 cryst.   s(10) = (     1          0          0      )
                  (     0          1          0      )
                  (     0          0         -1      )

 cart.    s(10) = (  1.0000000  0.0000000  0.0000000 )
                  (  0.0000000  1.0000000  0.0000000 )
                  (  0.0000000  0.0000000 -1.0000000 )


      isym = 11     inv. 180 deg rotation - cart. axis [0,1,0]   

 cryst.   s(11) = (     1          0          0      )    f =( -0.5000000 )
                  (     0         -1          0      )       (  0.5000000 )
                  (     0          0          1      )       ( -0.5000000 )

 cart.    s(11) = (  1.0000000  0.0000000  0.0000000 )    f =( -0.5000000 )
                  (  0.0000000 -1.0000000  0.0000000 )       (  0.5000000 )
                  (  0.0000000  0.0000000  1.0000000 )       ( -0.3509351 )


      isym = 12     inv. 180 deg rotation - cart. axis [1,0,0]   

 cryst.   s(12) = (    -1          0          0      )    f =(  0.5000000 )
                  (     0          1          0      )       ( -0.5000000 )
                  (     0          0          1      )       ( -0.5000000 )

 cart.    s(12) = ( -1.0000000  0.0000000  0.0000000 )    f =(  0.5000000 )
                  (  0.0000000  1.0000000  0.0000000 )       ( -0.5000000 )
                  (  0.0000000  0.0000000  1.0000000 )       ( -0.3509351 )


      isym = 13     inv. 180 deg rotation - cart. axis [1,1,0]   

 cryst.   s(13) = (     0         -1          0      )
                  (    -1          0          0      )
                  (     0          0          1      )

 cart.    s(13) = (  0.0000000 -1.0000000  0.0000000 )
                  ( -1.0000000  0.0000000  0.0000000 )
                  (  0.0000000  0.0000000  1.0000000 )


      isym = 14     inv. 180 deg rotation - cart. axis [1,-1,0]  

 cryst.   s(14) = (     0          1          0      )
                  (     1          0          0      )
                  (     0          0          1      )

 cart.    s(14) = (  0.0000000  1.0000000  0.0000000 )
                  (  1.0000000  0.0000000  0.0000000 )
                  (  0.0000000  0.0000000  1.0000000 )


      isym = 15     inv.  90 deg rotation - cart. axis [0,0,-1]  

 cryst.   s(15) = (     0          1          0      )    f =(  0.5000000 )
                  (    -1          0          0      )       ( -0.5000000 )
                  (     0          0         -1      )       (  0.5000000 )

 cart.    s(15) = (  0.0000000 -1.0000000  0.0000000 )    f =(  0.5000000 )
                  (  1.0000000  0.0000000  0.0000000 )       ( -0.5000000 )
                  (  0.0000000  0.0000000 -1.0000000 )       (  0.3509351 )


      isym = 16     inv.  90 deg rotation - cart. axis [0,0,1]   

 cryst.   s(16) = (     0         -1          0      )    f =( -0.5000000 )
                  (     1          0          0      )       (  0.5000000 )
                  (     0          0         -1      )       (  0.5000000 )

 cart.    s(16) = (  0.0000000  1.0000000  0.0000000 )    f =( -0.5000000 )
                  ( -1.0000000  0.0000000  0.0000000 )       (  0.5000000 )
                  (  0.0000000  0.0000000 -1.0000000 )       (  0.3509351 )


     double point group D_4h(4/mmm)
     there are 14 classes and  4 irreducible representations
     the character table:

       E     -E    2C4   -2C4   C2    2C2' 2C2'' i     -i    2S4   -2S4   s_h 
                               -C2   -2C2' -2C2'                         -s_h 
G_6+   2.00 -2.00  1.41 -1.41  0.00  0.00  0.00  2.00 -2.00  1.41 -1.41  0.00
G_7+   2.00 -2.00 -1.41  1.41  0.00  0.00  0.00  2.00 -2.00 -1.41  1.41  0.00
G_6-   2.00 -2.00  1.41 -1.41  0.00  0.00  0.00 -2.00  2.00 -1.41  1.41  0.00
G_7-   2.00 -2.00 -1.41  1.41  0.00  0.00  0.00 -2.00  2.00  1.41 -1.41  0.00

        2s_v  2s_d
       -2s_v -2s_d
G_6+   0.00  0.00
G_7+   0.00  0.00
G_6-   0.00  0.00
G_7-   0.00  0.00

     the symmetry operations in each class and the name of the first element:

     E             1
          identity                                               
     -E           -1
          identity E                                             
     2C4           7    8
           90 deg rotation - cart. axis [0,0,-1]                 
     -2C4         -7   -8
           90 deg rotation - cart. axis [0,0,-1] E               
      C2  -C2      2   -2
          180 deg rotation - cart. axis [0,0,1]                  
      2C2'-2C2'    3   -3    4   -4
          180 deg rotation - cart. axis [0,1,0]                  
     2C2''-2C2'    5   -5   -6    6
          180 deg rotation - cart. axis [1,1,0]                  
     i             9
          inversion                                              
     -i           -9
          inversion E                                            
     2S4          15   16
          inv.  90 deg rotation - cart. axis [0,0,-1]            
     -2S4        -15  -16
          inv.  90 deg rotation - cart. axis [0,0,-1] E          
      s_h -s_h    10  -10
          inv. 180 deg rotation - cart. axis [0,0,1]             
      2s_v-2s_v   11  -11   12  -12
          inv. 180 deg rotation - cart. axis [0,1,0]             
      2s_d-2s_d   13  -13  -14   14
          inv. 180 deg rotation - cart. axis [1,1,0]             

   Cartesian axes

     site n.     atom                  positions (alat units)
         1           Ir  tau(   1) = (   0.0000000   0.0000000   0.0000000  )
         2           Ir  tau(   2) = (   0.5000000   0.5000000   0.3509351  )
         3           O   tau(   3) = (   0.1916000   0.8084000   0.3509351  )
         4           O   tau(   4) = (   0.3084000   0.3084000   0.0000000  )
         5           O   tau(   5) = (   0.6916000   0.6916000   0.0000000  )
         6           O   tau(   6) = (   0.8084000   0.1916000   0.3509351  )

   Crystallographic axes

     site n.     atom                  positions (cryst. coord.)
         1           Ir  tau(   1) = (  0.0000000  0.0000000  0.0000000  )
         2           Ir  tau(   2) = (  0.5000000  0.5000000  0.5000000  )
         3           O   tau(   3) = (  0.1916000  0.8084000  0.5000000  )
         4           O   tau(   4) = (  0.3084000  0.3084000  0.0000000  )
         5           O   tau(   5) = (  0.6916000  0.6916000  0.0000000  )
         6           O   tau(   6) = (  0.8084000  0.1916000  0.5000000  )

     number of k points=    15  Methfessel-Paxton smearing, width (Ry)=  0.0050
                       cart. coord. in units 2pi/alat
        k(    1) = (   0.0000000   0.0000000   0.0000000), wk =   0.0277778
        k(    2) = (   0.0000000   0.0000000   0.1583072), wk =   0.0555556
        k(    3) = (   0.0000000   0.0000000   0.3166144), wk =   0.0555556
        k(    4) = (   0.0000000   0.0000000   0.4749216), wk =   0.0555556
        k(    5) = (   0.0000000   0.0000000   0.6332288), wk =   0.0555556
        k(    6) = (   0.0000000  -0.5000000   0.0000000), wk =   0.0555556
        k(    7) = (   0.0000000  -0.5000000   0.1583072), wk =   0.1111111
        k(    8) = (   0.0000000  -0.5000000   0.3166144), wk =   0.1111111
        k(    9) = (   0.0000000  -0.5000000   0.4749216), wk =   0.1111111
        k(   10) = (   0.0000000  -0.5000000   0.6332288), wk =   0.1111111
        k(   11) = (  -0.5000000  -0.5000000   0.0000000), wk =   0.0277778
        k(   12) = (  -0.5000000  -0.5000000   0.1583072), wk =   0.0555556
        k(   13) = (  -0.5000000  -0.5000000   0.3166144), wk =   0.0555556
        k(   14) = (  -0.5000000  -0.5000000   0.4749216), wk =   0.0555556
        k(   15) = (  -0.5000000  -0.5000000   0.6332288), wk =   0.0555556

                       cryst. coord.
        k(    1) = (   0.0000000   0.0000000   0.0000000), wk =   0.0277778
        k(    2) = (   0.0000000   0.0000000   0.1111111), wk =   0.0555556
        k(    3) = (   0.0000000   0.0000000   0.2222222), wk =   0.0555556
        k(    4) = (   0.0000000   0.0000000   0.3333333), wk =   0.0555556
        k(    5) = (   0.0000000   0.0000000   0.4444444), wk =   0.0555556
        k(    6) = (   0.0000000  -0.5000000   0.0000000), wk =   0.0555556
        k(    7) = (   0.0000000  -0.5000000   0.1111111), wk =   0.1111111
        k(    8) = (   0.0000000  -0.5000000   0.2222222), wk =   0.1111111
        k(    9) = (   0.0000000  -0.5000000   0.3333333), wk =   0.1111111
        k(   10) = (   0.0000000  -0.5000000   0.4444444), wk =   0.1111111
        k(   11) = (  -0.5000000  -0.5000000   0.0000000), wk =   0.0277778
        k(   12) = (  -0.5000000  -0.5000000   0.1111111), wk =   0.0555556
        k(   13) = (  -0.5000000  -0.5000000   0.2222222), wk =   0.0555556
        k(   14) = (  -0.5000000  -0.5000000   0.3333333), wk =   0.0555556
        k(   15) = (  -0.5000000  -0.5000000   0.4444444), wk =   0.0555556

     Dense  grid:    42999 G-vectors     FFT dimensions: (  50,  50,  36)

     Dynamical RAM for                 wfc:       0.36 MB

     Dynamical RAM for     wfc (w. buffer):       5.71 MB

     Dynamical RAM for           str. fact:       0.04 MB

     Dynamical RAM for           local pot:       0.00 MB

     Dynamical RAM for          nlocal pot:       0.46 MB

     Dynamical RAM for                qrad:      20.10 MB

     Dynamical RAM for          rho,v,vnew:       0.70 MB

     Dynamical RAM for               rhoin:       0.23 MB

     Dynamical RAM for            rho*nmix:       1.31 MB

     Dynamical RAM for           G-vectors:       0.09 MB

     Dynamical RAM for          h,s,v(r/c):       0.04 MB

     Dynamical RAM for          <psi|beta>:       0.38 MB

     Dynamical RAM for                 psi:       0.71 MB

     Dynamical RAM for                hpsi:       0.71 MB

     Dynamical RAM for      wfcinit/wfcrot:       0.67 MB

     Estimated static dynamical RAM per process >      27.70 MB

     Estimated max dynamical RAM per process >      30.86 MB

     Estimated total dynamical RAM >     987.49 MB

     Initial potential from superposition of free atoms

     starting charge      57.9997, renormalised to      58.0000
     Starting wfcs are   72 randomized atomic wfcs

     total cpu time spent up to now is        0.9 secs

     Self-consistent Calculation

     iteration #  1     ecut=    80.00 Ry     beta= 0.70
     Davidson diagonalization with overlap

---- Real-time Memory Report at c_bands before calling an iterative solver
            77 MiB given to the printing process from OS
             0 MiB allocation reported by mallinfo(arena+hblkhd)
        228941 MiB available memory on the node where the printing process lives
------------------
     ethr =  1.00E-02,  avg # of iterations =  2.4

     total cpu time spent up to now is        3.5 secs

     total energy              =    -552.41288890 Ry
     estimated scf accuracy    <       1.22296112 Ry

     iteration #  2     ecut=    80.00 Ry     beta= 0.70
     Davidson diagonalization with overlap

---- Real-time Memory Report at c_bands before calling an iterative solver
            84 MiB given to the printing process from OS
             0 MiB allocation reported by mallinfo(arena+hblkhd)
        228819 MiB available memory on the node where the printing process lives
------------------
     ethr =  2.11E-03,  avg # of iterations =  2.1

     total cpu time spent up to now is        6.4 secs

     total energy              =    -552.23467271 Ry
     estimated scf accuracy    <       4.49006658 Ry

     iteration #  3     ecut=    80.00 Ry     beta= 0.70
     Davidson diagonalization with overlap

---- Real-time Memory Report at c_bands before calling an iterative solver
            98 MiB given to the printing process from OS
             0 MiB allocation reported by mallinfo(arena+hblkhd)
        228660 MiB available memory on the node where the printing process lives
------------------
     ethr =  2.11E-03,  avg # of iterations =  2.1

     total cpu time spent up to now is        9.0 secs

     total energy              =    -553.07018353 Ry
     estimated scf accuracy    <       0.03591857 Ry

     iteration #  4     ecut=    80.00 Ry     beta= 0.70
     Davidson diagonalization with overlap

---- Real-time Memory Report at c_bands before calling an iterative solver
           100 MiB given to the printing process from OS
             0 MiB allocation reported by mallinfo(arena+hblkhd)
        228626 MiB available memory on the node where the printing process lives
------------------
     ethr =  6.19E-05,  avg # of iterations =  2.7

     total cpu time spent up to now is       11.7 secs

     total energy              =    -553.07374941 Ry
     estimated scf accuracy    <       0.00562826 Ry

     iteration #  5     ecut=    80.00 Ry     beta= 0.70
     Davidson diagonalization with overlap

---- Real-time Memory Report at c_bands before calling an iterative solver
           101 MiB given to the printing process from OS
             0 MiB allocation reported by mallinfo(arena+hblkhd)
        228614 MiB available memory on the node where the printing process lives
------------------
     ethr =  9.70E-06,  avg # of iterations =  3.4

     total cpu time spent up to now is       14.2 secs

     total energy              =    -553.07475924 Ry
     estimated scf accuracy    <       0.00027397 Ry

     iteration #  6     ecut=    80.00 Ry     beta= 0.70
     Davidson diagonalization with overlap

---- Real-time Memory Report at c_bands before calling an iterative solver
           104 MiB given to the printing process from OS
             0 MiB allocation reported by mallinfo(arena+hblkhd)
        228608 MiB available memory on the node where the printing process lives
------------------
     ethr =  4.72E-07,  avg # of iterations =  2.9

     total cpu time spent up to now is       16.6 secs

     total energy              =    -553.07479248 Ry
     estimated scf accuracy    <       0.00001205 Ry

     iteration #  7     ecut=    80.00 Ry     beta= 0.70
     Davidson diagonalization with overlap

---- Real-time Memory Report at c_bands before calling an iterative solver
           104 MiB given to the printing process from OS
             0 MiB allocation reported by mallinfo(arena+hblkhd)
        228604 MiB available memory on the node where the printing process lives
------------------
     ethr =  2.08E-08,  avg # of iterations =  2.0

     total cpu time spent up to now is       19.4 secs

     total energy              =    -553.07479625 Ry
     estimated scf accuracy    <       0.00000071 Ry

     iteration #  8     ecut=    80.00 Ry     beta= 0.70
     Davidson diagonalization with overlap

---- Real-time Memory Report at c_bands before calling an iterative solver
           104 MiB given to the printing process from OS
             0 MiB allocation reported by mallinfo(arena+hblkhd)
        228585 MiB available memory on the node where the printing process lives
------------------
     ethr =  1.22E-09,  avg # of iterations =  2.2

     total cpu time spent up to now is       21.7 secs

     total energy              =    -553.07479632 Ry
     estimated scf accuracy    <       0.00000006 Ry

     iteration #  9     ecut=    80.00 Ry     beta= 0.70
     Davidson diagonalization with overlap

---- Real-time Memory Report at c_bands before calling an iterative solver
           105 MiB given to the printing process from OS
             0 MiB allocation reported by mallinfo(arena+hblkhd)
        228584 MiB available memory on the node where the printing process lives
------------------
     ethr =  9.81E-11,  avg # of iterations =  2.7

     total cpu time spent up to now is       24.5 secs

     total energy              =    -553.07479634 Ry
     estimated scf accuracy    <          3.5E-09 Ry

     iteration # 10     ecut=    80.00 Ry     beta= 0.70
     Davidson diagonalization with overlap

---- Real-time Memory Report at c_bands before calling an iterative solver
           105 MiB given to the printing process from OS
             0 MiB allocation reported by mallinfo(arena+hblkhd)
        228582 MiB available memory on the node where the printing process lives
------------------
     ethr =  6.09E-12,  avg # of iterations =  2.3

     total cpu time spent up to now is       27.1 secs

     End of self-consistent calculation

          k = 0.0000 0.0000 0.0000 (  5409 PWs)   bands (ev):

   -79.3743 -79.3743 -79.3729 -79.3729 -46.2171 -46.2171 -46.2064 -46.2064
   -32.7556 -32.7556 -32.7516 -32.7516 -32.6142 -32.6142 -32.5930 -32.5930
    -7.0856  -7.0856  -5.9305  -5.9305  -5.0160  -5.0160  -4.8146  -4.8146
     4.2640   4.2640   4.5113   4.5113   6.0261   6.0261   6.1367   6.1367
     6.2574   6.2574   8.7737   8.7737   8.9288   8.9288   9.1857   9.1857
    10.3190  10.3190  10.9751  10.9751  10.9894  10.9894  11.0179  11.0179
    11.2132  11.2132  11.4052  11.4052  11.6298  11.6298  11.6710  11.6710
    12.0632  12.0632  14.6521  14.6521  15.0833  15.0833  17.6818  17.6818
    17.8914  17.8914  18.0388  18.0388  19.4434  19.4434

     occupation numbers 
     1.0000   1.0000   1.0000   1.0000   1.0000   1.0000   1.0000   1.0000
     1.0000   1.0000   1.0000   1.0000   1.0000   1.0000   1.0000   1.0000
     1.0000   1.0000   1.0000   1.0000   1.0000   1.0000   1.0000   1.0000
     1.0000   1.0000   1.0000   1.0000   1.0000   1.0000   1.0000   1.0000
     1.0000   1.0000   1.0000   1.0000   1.0000   1.0000   1.0000   1.0000
     1.0000   1.0000   1.0000   1.0000   1.0000   1.0000   1.0000   1.0000
     1.0000   1.0000   1.0000   1.0000   1.0000   1.0000   1.0000   1.0000
     1.0000   1.0000  -0.0000  -0.0000  -0.0000  -0.0000  -0.0000  -0.0000
    -0.0000  -0.0000  -0.0000  -0.0000  -0.0000  -0.0000

          k = 0.0000 0.0000 0.1583 (  5361 PWs)   bands (ev):

   -79.3739 -79.3739 -79.3727 -79.3727 -46.2181 -46.2181 -46.2080 -46.2080
   -32.7594 -32.7594 -32.7588 -32.7588 -32.6180 -32.6180 -32.5949 -32.5949
    -6.9733  -6.9733  -5.8720  -5.8720  -5.0688  -5.0688  -4.8852  -4.8852
     4.4276   4.4276   4.6297   4.6297   6.1238   6.1238   6.2042   6.2042
     6.3766   6.3766   8.3378   8.3378   9.0184   9.0184   9.2720   9.2720
     9.6484   9.6484  10.2101  10.2101  10.3235  10.3235  11.3493  11.3493
    11.5864  11.5864  11.6034  11.6034  11.6993  11.6993  12.2538  12.2538
    12.3715  12.3715  14.9162  14.9162  14.9668  14.9668  17.3909  17.3909
    17.7111  17.7111  18.2218  18.2218  19.2173  19.2173

     occupation numbers 
     1.0000   1.0000   1.0000   1.0000   1.0000   1.0000   1.0000   1.0000
     1.0000   1.0000   1.0000   1.0000   1.0000   1.0000   1.0000   1.0000
     1.0000   1.0000   1.0000   1.0000   1.0000   1.0000   1.0000   1.0000
     1.0000   1.0000   1.0000   1.0000   1.0000   1.0000   1.0000   1.0000
     1.0000   1.0000   1.0000   1.0000   1.0000   1.0000   1.0000   1.0000
     1.0000   1.0000   1.0000   1.0000   1.0000   1.0000   1.0000   1.0000
     1.0000   1.0000   1.0000   1.0000   1.0000   1.0000   1.0000   1.0000
     1.0000   1.0000  -0.0000  -0.0000  -0.0000  -0.0000  -0.0000  -0.0000
    -0.0000  -0.0000  -0.0000  -0.0000  -0.0000  -0.0000

          k = 0.0000 0.0000 0.3166 (  5381 PWs)   bands (ev):

   -79.3731 -79.3731 -79.3721 -79.3721 -46.2205 -46.2205 -46.2123 -46.2123
   -32.7775 -32.7775 -32.7724 -32.7724 -32.6240 -32.6240 -32.5994 -32.5994
    -6.6682  -6.6682  -5.7377  -5.7377  -5.1960  -5.1960  -5.0606  -5.0606
     4.8847   4.8847   4.9442   4.9442   6.3816   6.3816   6.3970   6.3970
     6.7324   6.7324   7.4582   7.4582   8.5301   8.5301   9.2406   9.2406
     9.3486   9.3486   9.5224   9.5224   9.7263   9.7263  10.7798  10.7798
    11.7785  11.7785  11.8729  11.8729  12.1028  12.1028  13.0069  13.0069
    13.0286  13.0286  14.6381  14.6381  15.5036  15.5036  16.7978  16.7978
    17.0935  17.0935  18.1961  18.1961  19.5495  19.5495

     occupation numbers 
     1.0000   1.0000   1.0000   1.0000   1.0000   1.0000   1.0000   1.0000
     1.0000   1.0000   1.0000   1.0000   1.0000   1.0000   1.0000   1.0000
     1.0000   1.0000   1.0000   1.0000   1.0000   1.0000   1.0000   1.0000
     1.0000   1.0000   1.0000   1.0000   1.0000   1.0000   1.0000   1.0000
     1.0000   1.0000   1.0000   1.0000   1.0000   1.0000   1.0000   1.0000
     1.0000   1.0000   1.0000   1.0000   1.0000   1.0000   1.0000   1.0000
     1.0000   1.0000   1.0000   1.0000   1.0000   1.0000   1.0000   1.0000
     1.0000   1.0000  -0.0000  -0.0000  -0.0000  -0.0000  -0.0000  -0.0000
    -0.0000  -0.0000  -0.0000  -0.0000  -0.0000  -0.0000

          k = 0.0000 0.0000 0.4749 (  5385 PWs)   bands (ev):

   -79.3722 -79.3722 -79.3715 -79.3715 -46.2229 -46.2229 -46.2175 -46.2175
   -32.7990 -32.7990 -32.7924 -32.7924 -32.6243 -32.6243 -32.6050 -32.6050
    -6.2601  -6.2601  -5.6343  -5.6343  -5.3257  -5.3257  -5.2567  -5.2567
     5.3289   5.3289   5.5022   5.5022   6.5490   6.5490   6.7184   6.7184
     6.8362   6.8362   7.3054   7.3054   7.6304   7.6304   8.6631   8.6631
     8.8177   8.8177   9.6483   9.6483   9.8958   9.8958   9.9384   9.9384
    11.7916  11.7916  12.1883  12.1883  12.2802  12.2802  13.5463  13.5463
    13.6366  13.6366  14.2000  14.2000  15.9824  15.9824  16.3311  16.3311
    16.6275  16.6275  17.3636  17.3636  20.8755  20.8755

     occupation numbers 
     1.0000   1.0000   1.0000   1.0000   1.0000   1.0000   1.0000   1.0000
     1.0000   1.0000   1.0000   1.0000   1.0000   1.0000   1.0000   1.0000
     1.0000   1.0000   1.0000   1.0000   1.0000   1.0000   1.0000   1.0000
     1.0000   1.0000   1.0000   1.0000   1.0000   1.0000   1.0000   1.0000
     1.0000   1.0000   1.0000   1.0000   1.0000   1.0000   1.0000   1.0000
     1.0000   1.0000   1.0000   1.0000   1.0000   1.0000   1.0000   1.0000
     1.0000   1.0000   1.0000   1.0000   1.0000   1.0000   1.0000   1.0000
     1.0001   1.0001  -0.0000  -0.0000  -0.0000  -0.0000  -0.0000  -0.0000
    -0.0000  -0.0000  -0.0000  -0.0000  -0.0000  -0.0000

          k = 0.0000 0.0000 0.6332 (  5390 PWs)   bands (ev):

   -79.3715 -79.3715 -79.3712 -79.3712 -46.2236 -46.2236 -46.2218 -46.2218
   -32.8119 -32.8119 -32.8091 -32.8091 -32.6188 -32.6188 -32.6116 -32.6116
    -5.8808  -5.8808  -5.6627  -5.6627  -5.4051  -5.4051  -5.3896  -5.3896
     5.6247   5.6247   5.8071   5.8071   6.4811   6.4811   6.9310   6.9310
     7.0422   7.0422   7.0499   7.0499   8.0692   8.0692   8.2488   8.2488
     8.3421   8.3421   9.0019   9.0019   9.8766   9.8766   9.9736   9.9736
    11.8170  11.8170  12.0048  12.0048  12.8046  12.8046  13.3669  13.3669
    14.0315  14.0315  14.1118  14.1118  16.0898  16.0898  16.1234  16.1234
    16.5422  16.5422  16.7612  16.7612  22.2716  22.2716

     occupation numbers 
     1.0000   1.0000   1.0000   1.0000   1.0000   1.0000   1.0000   1.0000
     1.0000   1.0000   1.0000   1.0000   1.0000   1.0000   1.0000   1.0000
     1.0000   1.0000   1.0000   1.0000   1.0000   1.0000   1.0000   1.0000
     1.0000   1.0000   1.0000   1.0000   1.0000   1.0000   1.0000   1.0000
     1.0000   1.0000   1.0000   1.0000   1.0000   1.0000   1.0000   1.0000
     1.0000   1.0000   1.0000   1.0000   1.0000   1.0000   1.0000   1.0000
     1.0000   1.0000   1.0000   1.0000   1.0000   1.0000   1.0000   1.0000
    -0.0002  -0.0002  -0.0000  -0.0000  -0.0000  -0.0000  -0.0000  -0.0000
    -0.0000  -0.0000  -0.0000  -0.0000  -0.0000  -0.0000

          k = 0.0000-0.5000 0.0000 (  5380 PWs)   bands (ev):

   -79.3736 -79.3736 -79.3736 -79.3736 -46.2118 -46.2118 -46.2118 -46.2118
   -32.7506 -32.7506 -32.7506 -32.7506 -32.6072 -32.6072 -32.6072 -32.6072
    -6.2924  -6.2924  -6.2924  -6.2924  -5.2753  -5.2753  -5.2753  -5.2753
     5.6211   5.6211   5.6211   5.6211   6.2319   6.2319   6.2319   6.2319
     7.2627   7.2627   7.2627   7.2627   7.8893   7.8893   7.8893   7.8893
     8.7601   8.7601   8.7601   8.7601  10.8132  10.8132  10.8132  10.8132
    12.1303  12.1303  12.1303  12.1303  12.4978  12.4978  12.4978  12.4978
    13.6484  13.6484  13.6484  13.6484  17.2152  17.2152  17.2152  17.2152
    17.5131  17.5131  17.5131  17.5131  20.7654  20.7654

     occupation numbers 
     1.0000   1.0000   1.0000   1.0000   1.0000   1.0000   1.0000   1.0000
     1.0000   1.0000   1.0000   1.0000   1.0000   1.0000   1.0000   1.0000
     1.0000   1.0000   1.0000   1.0000   1.0000   1.0000   1.0000   1.0000
     1.0000   1.0000   1.0000   1.0000   1.0000   1.0000   1.0000   1.0000
     1.0000   1.0000   1.0000   1.0000   1.0000   1.0000   1.0000   1.0000
     1.0000   1.0000   1.0000   1.0000   1.0000   1.0000   1.0000   1.0000
     1.0000   1.0000   1.0000   1.0000   1.0000   1.0000   1.0000   1.0000
     1.0003   1.0003   1.0003   1.0003  -0.0000  -0.0000  -0.0000  -0.0000
    -0.0000  -0.0000  -0.0000  -0.0000  -0.0000  -0.0000

          k = 0.0000-0.5000 0.1583 (  5368 PWs)   bands (ev):

   -79.3733 -79.3733 -79.3733 -79.3733 -46.2134 -46.2134 -46.2128 -46.2128
   -32.7625 -32.7625 -32.7509 -32.7509 -32.6134 -32.6134 -32.6055 -32.6055
    -6.2169  -6.2169  -6.1908  -6.1908  -5.3357  -5.3357  -5.3097  -5.3097
     5.7235   5.7235   5.8194   5.8194   6.1612   6.1612   6.1726   6.1726
     7.4728   7.4728   7.5211   7.5211   7.7031   7.7031   7.7212   7.7212
     8.4762   8.4762   8.5925   8.5925  10.8259  10.8259  10.8510  10.8510
    12.0449  12.0449  12.0608  12.0608  12.6714  12.6714  12.7934  12.7934
    13.5271  13.5271  13.7408  13.7408  16.7007  16.7007  16.9071  16.9071
    17.5232  17.5232  17.5914  17.5914  21.0917  21.1051

     occupation numbers 
     1.0000   1.0000   1.0000   1.0000   1.0000   1.0000   1.0000   1.0000
     1.0000   1.0000   1.0000   1.0000   1.0000   1.0000   1.0000   1.0000
     1.0000   1.0000   1.0000   1.0000   1.0000   1.0000   1.0000   1.0000
     1.0000   1.0000   1.0000   1.0000   1.0000   1.0000   1.0000   1.0000
     1.0000   1.0000   1.0000   1.0000   1.0000   1.0000   1.0000   1.0000
     1.0000   1.0000   1.0000   1.0000   1.0000   1.0000   1.0000   1.0000
     1.0000   1.0000   1.0000   1.0000   1.0000   1.0000   1.0000   1.0000
     1.0000   1.0000   1.0317   1.0317  -0.0000  -0.0000  -0.0000  -0.0000
    -0.0000  -0.0000  -0.0000  -0.0000  -0.0000  -0.0000

          k = 0.0000-0.5000 0.3166 (  5392 PWs)   bands (ev):

   -79.3726 -79.3726 -79.3726 -79.3726 -46.2171 -46.2171 -46.2158 -46.2158
   -32.7843 -32.7843 -32.7632 -32.7632 -32.6204 -32.6204 -32.6063 -32.6063
    -6.0062  -6.0062  -5.9702  -5.9702  -5.4559  -5.4559  -5.3924  -5.3924
     5.9418   5.9418   6.0223   6.0223   6.3296   6.3296   6.4063   6.4063
     6.8776   6.8776   6.8978   6.8978   7.9736   7.9736   7.9841   7.9841
     8.6569   8.6569   8.6883   8.6883  10.5120  10.5120  10.5220  10.5220
    12.0748  12.0748  12.1468  12.1468  12.6950  12.6950  12.9341  12.9341
    13.5265  13.5265  13.9410  13.9410  15.9326  15.9326  16.0747  16.0747
    17.7206  17.7206  17.7815  17.7815  21.7791  21.7958

     occupation numbers 
     1.0000   1.0000   1.0000   1.0000   1.0000   1.0000   1.0000   1.0000
     1.0000   1.0000   1.0000   1.0000   1.0000   1.0000   1.0000   1.0000
     1.0000   1.0000   1.0000   1.0000   1.0000   1.0000   1.0000   1.0000
     1.0000   1.0000   1.0000   1.0000   1.0000   1.0000   1.0000   1.0000
     1.0000   1.0000   1.0000   1.0000   1.0000   1.0000   1.0000   1.0000
     1.0000   1.0000   1.0000   1.0000   1.0000   1.0000   1.0000   1.0000
     1.0000   1.0000   1.0000   1.0000   1.0000   1.0000   1.0000   1.0000
     1.0000   1.0000  -0.0258  -0.0258  -0.0000  -0.0000  -0.0000  -0.0000
    -0.0000  -0.0000  -0.0000  -0.0000  -0.0000  -0.0000

          k = 0.0000-0.5000 0.4749 (  5380 PWs)   bands (ev):

   -79.3718 -79.3718 -79.3718 -79.3718 -46.2211 -46.2211 -46.2194 -46.2194
   -32.8091 -32.8091 -32.7821 -32.7821 -32.6239 -32.6239 -32.6063 -32.6063
    -5.8273  -5.8273  -5.8233  -5.8233  -5.5053  -5.5053  -5.3719  -5.3719
     5.9309   5.9309   5.9561   5.9561   6.1618   6.1618   6.1938   6.1938
     6.9105   6.9105   7.1598   7.1598   8.3123   8.3123   8.3354   8.3354
     8.9218   8.9218   9.0126   9.0126  10.2467  10.2467  10.2945  10.2945
    11.7266  11.7266  11.7713  11.7713  12.3869  12.3869  12.6826  12.6826
    13.8548  13.8548  14.2666  14.2666  15.3409  15.3409  15.3889  15.3889
    17.9800  17.9800  18.1148  18.1148  22.5131  22.5137

     occupation numbers 
     1.0000   1.0000   1.0000   1.0000   1.0000   1.0000   1.0000   1.0000
     1.0000   1.0000   1.0000   1.0000   1.0000   1.0000   1.0000   1.0000
     1.0000   1.0000   1.0000   1.0000   1.0000   1.0000   1.0000   1.0000
     1.0000   1.0000   1.0000   1.0000   1.0000   1.0000   1.0000   1.0000
     1.0000   1.0000   1.0000   1.0000   1.0000   1.0000   1.0000   1.0000
     1.0000   1.0000   1.0000   1.0000   1.0000   1.0000   1.0000   1.0000
     1.0000   1.0000   1.0000   1.0000   1.0000   1.0000   1.0000   1.0000
     0.2779   0.2779  -0.0000  -0.0000  -0.0000  -0.0000  -0.0000  -0.0000
    -0.0000  -0.0000  -0.0000  -0.0000  -0.0000  -0.0000

          k = 0.0000-0.5000 0.6332 (  5362 PWs)   bands (ev):

   -79.3713 -79.3713 -79.3713 -79.3713 -46.2237 -46.2237 -46.2218 -46.2218
   -32.8256 -32.8256 -32.7961 -32.7961 -32.6245 -32.6245 -32.6058 -32.6058
    -5.8320  -5.8320  -5.8306  -5.8306  -5.4040  -5.4040  -5.2434  -5.2434
     5.5012   5.5012   5.5426   5.5426   6.1999   6.1999   6.2015   6.2015
     7.4395   7.4395   7.8986   7.8986   8.4923   8.4923   8.5569   8.5569
     8.8669   8.8669   8.9865   8.9865  10.4765  10.4765  10.4867  10.4867
    11.2030  11.2030  11.2132  11.2132  11.9718  11.9718  12.2974  12.2974
    14.1229  14.1229  14.4789  14.4789  15.0568  15.0568  15.0890  15.0890
    18.1955  18.1955  18.3613  18.3613  23.0371  23.0944

     occupation numbers 
     1.0000   1.0000   1.0000   1.0000   1.0000   1.0000   1.0000   1.0000
     1.0000   1.0000   1.0000   1.0000   1.0000   1.0000   1.0000   1.0000
     1.0000   1.0000   1.0000   1.0000   1.0000   1.0000   1.0000   1.0000
     1.0000   1.0000   1.0000   1.0000   1.0000   1.0000   1.0000   1.0000
     1.0000   1.0000   1.0000   1.0000   1.0000   1.0000   1.0000   1.0000
     1.0000   1.0000   1.0000   1.0000   1.0000   1.0000   1.0000   1.0000
     1.0000   1.0000   1.0000   1.0000   1.0000   1.0000   1.0000   1.0000
    -0.0000  -0.0000  -0.0000  -0.0000  -0.0000  -0.0000  -0.0000  -0.0000
    -0.0000  -0.0000  -0.0000  -0.0000  -0.0000  -0.0000

          k =-0.5000-0.5000 0.0000 (  5412 PWs)   bands (ev):

   -79.3736 -79.3736 -79.3736 -79.3736 -46.2118 -46.2118 -46.2118 -46.2118
   -32.7533 -32.7533 -32.7533 -32.7533 -32.6049 -32.6049 -32.6049 -32.6049
    -6.4237  -6.4237  -6.4237  -6.4237  -5.0484  -5.0484  -5.0484  -5.0484
     4.3949   4.3949   4.3949   4.3949   6.0041   6.0041   6.0041   6.0041
     8.7390   8.7390   8.7390   8.7390   8.7674   8.7674   8.7674   8.7674
     9.5815   9.5815   9.5815   9.5815  10.3505  10.3505  10.3505  10.3505
    11.1240  11.1240  11.1240  11.1240  11.7482  11.7482  11.7482  11.7482
    14.0593  14.0593  14.0593  14.0593  16.2366  16.2366  16.2366  16.2366
    17.9204  17.9204  17.9204  17.9204  22.3883  22.7998

     occupation numbers 
     1.0000   1.0000   1.0000   1.0000   1.0000   1.0000   1.0000   1.0000
     1.0000   1.0000   1.0000   1.0000   1.0000   1.0000   1.0000   1.0000
     1.0000   1.0000   1.0000   1.0000   1.0000   1.0000   1.0000   1.0000
     1.0000   1.0000   1.0000   1.0000   1.0000   1.0000   1.0000   1.0000
     1.0000   1.0000   1.0000   1.0000   1.0000   1.0000   1.0000   1.0000
     1.0000   1.0000   1.0000   1.0000   1.0000   1.0000   1.0000   1.0000
     1.0000   1.0000   1.0000   1.0000   1.0000   1.0000   1.0000   1.0000
    -0.0000  -0.0000  -0.0000  -0.0000  -0.0000  -0.0000  -0.0000  -0.0000
    -0.0000  -0.0000  -0.0000  -0.0000  -0.0000  -0.0000

          k =-0.5000-0.5000 0.1583 (  5404 PWs)   bands (ev):

   -79.3733 -79.3733 -79.3733 -79.3733 -46.2132 -46.2132 -46.2132 -46.2132
   -32.7589 -32.7589 -32.7589 -32.7589 -32.6075 -32.6075 -32.6075 -32.6075
    -6.3343  -6.3343  -6.3343  -6.3343  -5.1059  -5.1059  -5.1059  -5.1059
     4.5265   4.5265   4.5265   4.5265   6.0049   6.0049   6.0049   6.0049
     8.7723   8.7723   8.7723   8.7723   8.9426   8.9426   8.9426   8.9426
     9.1090   9.1090   9.1090   9.1090   9.9672   9.9672   9.9672   9.9672
    11.4816  11.4816  11.4816  11.4816  12.0589  12.0589  12.0589  12.0589
    13.9264  13.9264  13.9264  13.9264  16.4018  16.4018  16.4018  16.4018
    17.6320  17.6320  17.6320  17.6320  22.6017  22.6017

     occupation numbers 
     1.0000   1.0000   1.0000   1.0000   1.0000   1.0000   1.0000   1.0000
     1.0000   1.0000   1.0000   1.0000   1.0000   1.0000   1.0000   1.0000
     1.0000   1.0000   1.0000   1.0000   1.0000   1.0000   1.0000   1.0000
     1.0000   1.0000   1.0000   1.0000   1.0000   1.0000   1.0000   1.0000
     1.0000   1.0000   1.0000   1.0000   1.0000   1.0000   1.0000   1.0000
     1.0000   1.0000   1.0000   1.0000   1.0000   1.0000   1.0000   1.0000
     1.0000   1.0000   1.0000   1.0000   1.0000   1.0000   1.0000   1.0000
    -0.0341  -0.0341  -0.0341  -0.0341  -0.0000  -0.0000  -0.0000  -0.0000
    -0.0000  -0.0000  -0.0000  -0.0000  -0.0000  -0.0000

          k =-0.5000-0.5000 0.3166 (  5380 PWs)   bands (ev):

   -79.3726 -79.3726 -79.3726 -79.3726 -46.2165 -46.2165 -46.2165 -46.2165
   -32.7751 -32.7751 -32.7751 -32.7751 -32.6124 -32.6124 -32.6124 -32.6124
    -6.1029  -6.1029  -6.1029  -6.1029  -5.2476  -5.2476  -5.2476  -5.2476
     4.8839   4.8839   4.8839   4.8839   6.0405   6.0405   6.0405   6.0405
     8.0604   8.0604   8.0604   8.0604   8.9557   8.9557   8.9557   8.9557
     9.1530   9.1530   9.1530   9.1530   9.7812   9.7812   9.7812   9.7812
    11.8534  11.8534  11.8534  11.8534  12.5729  12.5729  12.5729  12.5729
    13.5829  13.5829  13.5829  13.5829  16.6300  16.6300  16.6300  16.6300
    17.1266  17.1266  17.1266  17.1266  22.8822  22.8822

     occupation numbers 
     1.0000   1.0000   1.0000   1.0000   1.0000   1.0000   1.0000   1.0000
     1.0000   1.0000   1.0000   1.0000   1.0000   1.0000   1.0000   1.0000
     1.0000   1.0000   1.0000   1.0000   1.0000   1.0000   1.0000   1.0000
     1.0000   1.0000   1.0000   1.0000   1.0000   1.0000   1.0000   1.0000
     1.0000   1.0000   1.0000   1.0000   1.0000   1.0000   1.0000   1.0000
     1.0000   1.0000   1.0000   1.0000   1.0000   1.0000   1.0000   1.0000
     1.0000   1.0000   1.0000   1.0000   1.0000   1.0000   1.0000   1.0000
     1.0000   1.0000   1.0000   1.0000  -0.0000  -0.0000  -0.0000  -0.0000
    -0.0000  -0.0000  -0.0000  -0.0000  -0.0000  -0.0000

          k =-0.5000-0.5000 0.4749 (  5340 PWs)   bands (ev):

   -79.3718 -79.3718 -79.3718 -79.3718 -46.2203 -46.2203 -46.2203 -46.2203
   -32.7960 -32.7960 -32.7960 -32.7960 -32.6151 -32.6151 -32.6151 -32.6151
    -5.8315  -5.8315  -5.8315  -5.8315  -5.4006  -5.4006  -5.4006  -5.4006
     5.3429   5.3429   5.3429   5.3429   6.1326   6.1326   6.1326   6.1326
     7.2136   7.2136   7.2136   7.2136   8.5899   8.5899   8.5899   8.5899
     9.3852   9.3852   9.3852   9.3852  10.2567  10.2567  10.2567  10.2567
    11.9750  11.9750  11.9750  11.9750  12.8622  12.8622  12.8622  12.8622
    13.2940  13.2940  13.2940  13.2940  16.3499  16.3499  16.3499  16.3499
    17.0564  17.0564  17.0564  17.0564  23.0644  23.0644

     occupation numbers 
     1.0000   1.0000   1.0000   1.0000   1.0000   1.0000   1.0000   1.0000
     1.0000   1.0000   1.0000   1.0000   1.0000   1.0000   1.0000   1.0000
     1.0000   1.0000   1.0000   1.0000   1.0000   1.0000   1.0000   1.0000
     1.0000   1.0000   1.0000   1.0000   1.0000   1.0000   1.0000   1.0000
     1.0000   1.0000   1.0000   1.0000   1.0000   1.0000   1.0000   1.0000
     1.0000   1.0000   1.0000   1.0000   1.0000   1.0000   1.0000   1.0000
     1.0000   1.0000   1.0000   1.0000   1.0000   1.0000   1.0000   1.0000
     1.0000   1.0000   1.0000   1.0000  -0.0000  -0.0000  -0.0000  -0.0000
    -0.0000  -0.0000  -0.0000  -0.0000  -0.0000  -0.0000

          k =-0.5000-0.5000 0.6332 (  5372 PWs)   bands (ev):

   -79.3713 -79.3713 -79.3713 -79.3713 -46.2228 -46.2228 -46.2228 -46.2228
   -32.8107 -32.8107 -32.8107 -32.8107 -32.6158 -32.6158 -32.6158 -32.6158
    -5.6592  -5.6592  -5.6592  -5.6592  -5.4856  -5.4856  -5.4856  -5.4856
     5.6845   5.6845   5.6845   5.6845   6.2197   6.2197   6.2197   6.2197
     6.7248   6.7248   6.7248   6.7248   8.2987   8.2987   8.2987   8.2987
     9.6224   9.6224   9.6224   9.6224  10.6066  10.6066  10.6066  10.6066
    11.9471  11.9471  11.9471  11.9471  12.6634  12.6634  12.6634  12.6634
    13.4162  13.4162  13.4162  13.4162  16.1040  16.1040  16.1040  16.1040
    17.0352  17.0352  17.0352  17.0352  23.0736  23.0736

     occupation numbers 
     1.0000   1.0000   1.0000   1.0000   1.0000   1.0000   1.0000   1.0000
     1.0000   1.0000   1.0000   1.0000   1.0000   1.0000   1.0000   1.0000
     1.0000   1.0000   1.0000   1.0000   1.0000   1.0000   1.0000   1.0000
     1.0000   1.0000   1.0000   1.0000   1.0000   1.0000   1.0000   1.0000
     1.0000   1.0000   1.0000   1.0000   1.0000   1.0000   1.0000   1.0000
     1.0000   1.0000   1.0000   1.0000   1.0000   1.0000   1.0000   1.0000
     1.0000   1.0000   1.0000   1.0000   1.0000   1.0000   1.0000   1.0000
     1.0000   1.0000   1.0000   1.0000  -0.0000  -0.0000  -0.0000  -0.0000
    -0.0000  -0.0000  -0.0000  -0.0000  -0.0000  -0.0000

     the Fermi energy is    13.8362 ev

!    total energy              =    -553.07479634 Ry
     estimated scf accuracy    <          3.8E-11 Ry
     smearing contrib. (-TS)   =       0.00006491 Ry
     internal energy E=F+TS    =    -553.07486125 Ry

     The total energy is F=E-TS. E is the sum of the following terms:
     one-electron contribution =    -190.89964265 Ry
     hartree contribution      =     122.72244945 Ry
     xc contribution           =     -69.91165753 Ry
     ewald contribution        =    -414.98601052 Ry

     convergence has been achieved in  10 iterations

     Forces acting on atoms (cartesian axes, Ry/au):

     atom    1 type  2   force =     0.00000000    0.00000000   -0.00000000
     atom    2 type  2   force =     0.00000000    0.00000000    0.00000000
     atom    3 type  1   force =    -0.00099315    0.00099315    0.00000000
     atom    4 type  1   force =     0.00099315    0.00099315   -0.00000000
     atom    5 type  1   force =    -0.00099315   -0.00099315   -0.00000000
     atom    6 type  1   force =     0.00099315   -0.00099315    0.00000000
     The non-local contrib.  to forces
     atom    1 type  2   force =     0.00000000    0.00000000    0.00000000
     atom    2 type  2   force =     0.00000000    0.00000000    0.00000000
     atom    3 type  1   force =    -0.05207181    0.05207181   -0.00000000
     atom    4 type  1   force =     0.05207181    0.05207181    0.00000000
     atom    5 type  1   force =    -0.05207181   -0.05207181    0.00000000
     atom    6 type  1   force =     0.05207181   -0.05207181   -0.00000000
     The ionic contribution  to forces
     atom    1 type  2   force =    -0.00000000   -0.00000000    0.00000000
     atom    2 type  2   force =     0.00000000    0.00000000   -0.00000000
     atom    3 type  1   force =     1.42937233   -1.42937233    0.00000000
     atom    4 type  1   force =    -1.42937233   -1.42937233   -0.00000000
     atom    5 type  1   force =     1.42937233    1.42937233   -0.00000000
     atom    6 type  1   force =    -1.42937233    1.42937233    0.00000000
     The local contribution  to forces
     atom    1 type  2   force =     0.00000000    0.00000000   -0.00000000
     atom    2 type  2   force =     0.00000000    0.00000000    0.00000000
     atom    3 type  1   force =    -1.37829380    1.37829380    0.00000000
     atom    4 type  1   force =     1.37829380    1.37829380    0.00000000
     atom    5 type  1   force =    -1.37829380   -1.37829380    0.00000000
     atom    6 type  1   force =     1.37829380   -1.37829380    0.00000000
     The core correction contribution to forces
     atom    1 type  2   force =     0.00000000    0.00000000    0.00000000
     atom    2 type  2   force =     0.00000000    0.00000000    0.00000000
     atom    3 type  1   force =     0.00000000    0.00000000    0.00000000
     atom    4 type  1   force =     0.00000000    0.00000000    0.00000000
     atom    5 type  1   force =     0.00000000    0.00000000    0.00000000
     atom    6 type  1   force =     0.00000000    0.00000000    0.00000000
     The Hubbard contrib.    to forces
     atom    1 type  2   force =     0.00000000    0.00000000    0.00000000
     atom    2 type  2   force =     0.00000000    0.00000000    0.00000000
     atom    3 type  1   force =     0.00000000    0.00000000    0.00000000
     atom    4 type  1   force =     0.00000000    0.00000000    0.00000000
     atom    5 type  1   force =     0.00000000    0.00000000    0.00000000
     atom    6 type  1   force =     0.00000000    0.00000000    0.00000000
     The SCF correction term to forces
     atom    1 type  2   force =     0.00000000   -0.00000000    0.00000000
     atom    2 type  2   force =    -0.00000000    0.00000000   -0.00000000
     atom    3 type  1   force =     0.00000012   -0.00000012   -0.00000000
     atom    4 type  1   force =    -0.00000012   -0.00000012   -0.00000000
     atom    5 type  1   force =     0.00000012    0.00000012   -0.00000000
     atom    6 type  1   force =    -0.00000012    0.00000012   -0.00000000

     Total force =     0.002809     Total SCF correction =     0.000000


     Computing stress (Cartesian axis) and pressure

          total   stress  (Ry/bohr**3)                   (kbar)     P=      -21.16
  -0.00011445   0.00000000   0.00000000          -16.84        0.00        0.00
   0.00000000  -0.00011445   0.00000000            0.00      -16.84        0.00
   0.00000000   0.00000000  -0.00020268            0.00        0.00      -29.82

     kinetic stress (kbar)  48481.16      0.00      0.00
                                0.00  48481.16      0.00
                                0.00      0.00  47474.24

     local   stress (kbar) -12724.37      0.00      0.00
                                0.00 -12724.37     -0.00
                                0.00     -0.00 -44323.87

     nonloc. stress (kbar)  14531.71      0.00      0.00
                                0.00  14531.71      0.00
                                0.00      0.00  14730.56

     hartree stress (kbar)   9618.60     -0.00     -0.00
                               -0.00   9618.60     -0.00
                               -0.00     -0.00  21360.13

     exc-cor stress (kbar)  -7287.72     -0.00     -0.00
                               -0.00  -7287.72     -0.00
                               -0.00     -0.00  -7263.42

     corecor stress (kbar)      0.00      0.00      0.00
                                0.00      0.00      0.00
                                0.00      0.00      0.00

     ewald   stress (kbar) -52636.21     -0.00     -0.00
                               -0.00 -52636.21     -0.00
                               -0.00     -0.00 -32007.45

     hubbard stress (kbar)      0.00      0.00      0.00
                                0.00      0.00      0.00
                                0.00      0.00      0.00

     DFT-D   stress (kbar)      0.00      0.00      0.00
                                0.00      0.00      0.00
                                0.00      0.00      0.00

     XDM     stress (kbar)      0.00      0.00      0.00
                                0.00      0.00      0.00
                                0.00      0.00      0.00

     dft-nl  stress (kbar)      0.00      0.00      0.00
                                0.00      0.00      0.00
                                0.00      0.00      0.00

     TS-vdW  stress (kbar)      0.00      0.00      0.00
                                0.00      0.00      0.00
                                0.00      0.00      0.00


                                0.00      0.00      0.00
                                0.00      0.00      0.00


                                0.00      0.00      0.00


     Writing all to output data dir tmp/espresso.save/
 
     init_run     :      1.60s CPU      0.86s WALL (       1 calls)
     electrons    :     51.15s CPU     26.26s WALL (       1 calls)
     forces       :      2.51s CPU      1.28s WALL (       1 calls)
     stress       :      3.68s CPU      1.86s WALL (       1 calls)

     Called by init_run:
     wfcinit      :      1.54s CPU      0.80s WALL (       1 calls)
     wfcinit:atom :      0.01s CPU      0.00s WALL (      15 calls)
     wfcinit:wfcr :      1.50s CPU      0.78s WALL (      15 calls)
     potinit      :      0.02s CPU      0.01s WALL (       1 calls)
     hinit0       :      0.03s CPU      0.03s WALL (       1 calls)

     Called by electrons:
     c_bands      :     46.71s CPU     23.94s WALL (      10 calls)
     sum_band     :      4.27s CPU      2.19s WALL (      10 calls)
     v_of_rho     :      0.05s CPU      0.03s WALL (      11 calls)
     v_h          :      0.01s CPU      0.00s WALL (      11 calls)
     v_xc         :      0.04s CPU      0.02s WALL (      11 calls)
     mix_rho      :      0.05s CPU      0.03s WALL (      10 calls)

     Called by c_bands:
     init_us_2    :      0.13s CPU      0.07s WALL (     345 calls)
     init_us_2:cp :      0.13s CPU      0.07s WALL (     345 calls)
     cegterg      :     43.15s CPU     22.12s WALL (     150 calls)

     Called by sum_band:
     sum_band:wei :      0.03s CPU      0.02s WALL (      10 calls)
     sum_band:loo :      4.21s CPU      2.16s WALL (      10 calls)
     sum_band:buf :      0.02s CPU      0.01s WALL (     150 calls)
     sum_band:ini :      0.04s CPU      0.02s WALL (     150 calls)

     Called by *egterg:
     cdiaghg      :      6.47s CPU      3.29s WALL (     521 calls)
     cegterg:over :      2.68s CPU      1.37s WALL (     371 calls)
     cegterg:upda :      2.09s CPU      1.06s WALL (     371 calls)
     cegterg:last :      3.68s CPU      1.87s WALL (     300 calls)
     cdiaghg:chol :      0.30s CPU      0.15s WALL (     521 calls)
     cdiaghg:inve :      0.05s CPU      0.02s WALL (     521 calls)
     cdiaghg:para :      0.67s CPU      0.34s WALL (    1042 calls)
     h_psi        :     28.60s CPU     14.73s WALL (     536 calls)
     g_psi        :      0.04s CPU      0.02s WALL (     371 calls)

     Called by h_psi:
     h_psi:calbec :      3.41s CPU      1.81s WALL (     536 calls)
     vloc_psi     :     20.19s CPU     10.37s WALL (     536 calls)
     add_vuspsi   :      4.93s CPU      2.51s WALL (     536 calls)

     General routines
     calbec       :      4.14s CPU      2.19s WALL (     611 calls)
     fft          :      0.06s CPU      0.03s WALL (     150 calls)
     ffts         :      0.01s CPU      0.01s WALL (      40 calls)
     fftw         :     22.85s CPU     11.74s WALL (  128524 calls)
 
     Parallel routines
 
     PWSCF        :   1m 1.04s CPU     32.49s WALL

 
   This run was terminated on:  11:13:15  10Apr2022            

=------------------------------------------------------------------------------=
   JOB DONE.
=------------------------------------------------------------------------------=
