
     Program PWSCF v.7.0 starts on 10Apr2022 at 10:34: 1 

     This program is part of the open-source Quantum ESPRESSO suite
     for quantum simulation of materials; please cite
         "P. Giannozzi et al., J. Phys.:Condens. Matter 21 395502 (2009);
         "P. Giannozzi et al., J. Phys.:Condens. Matter 29 465901 (2017);
         "P. Giannozzi et al., J. Chem. Phys. 152 154105 (2020);
          URL http://www.quantum-espresso.org", 
     in publications or presentations arising from this work. More details at
     http://www.quantum-espresso.org/quote

     Parallel version (MPI & OpenMP), running on      64 processor cores
     Number of MPI processes:                32
     Threads/MPI process:                     2

     MPI processes distributed on     1 nodes
     R & G space division:  proc/nbgrp/npool/nimage =      32
     230657 MiB available memory on the printing compute node when the environment starts
 
     Reading input from kpoints_11116.pwi
Warning: card &CELL ignored
Warning: card / ignored

     Current dimensions of program PWSCF are:
     Max number of different atomic species (ntypx) = 10
     Max number of k-points (npk) =  40000
     Max angular momentum in pseudopotentials (lmaxx) =  4

     Subspace diagonalization in iterative solution of the eigenvalue problem:
     one sub-group per band group will be used
     scalapack distributed-memory algorithm (size of sub-group:  5*  5 procs)

 
     Parallelization info
     --------------------
     sticks:   dense  smooth     PW     G-vecs:    dense   smooth      PW
     Min          58      58     17                 1342     1342     210
     Max          59      59     19                 1345     1345     212
     Sum        1885    1885    553                42999    42999    6747
 
     Using Slab Decomposition
 

     Title: 
     IrO2 Unit Cell                                                             


     bravais-lattice index     =            6
     lattice parameter (alat)  =       8.5888  a.u.
     unit-cell volume          =     444.6868 (a.u.)^3
     number of atoms/cell      =            6
     number of atomic types    =            2
     number of electrons       =        58.00
     number of Kohn-Sham states=           70
     kinetic-energy cutoff     =      80.0000  Ry
     charge density cutoff     =     320.0000  Ry
     scf convergence threshold =      1.0E-09
     mixing beta               =       0.7000
     number of iterations used =            8  plain     mixing
     Exchange-correlation= PBE
                           (   1   4   3   4   0   0   0)
     Non magnetic calculation with spin-orbit


     celldm(1)=   8.588800  celldm(2)=   0.000000  celldm(3)=   0.701870
     celldm(4)=   0.000000  celldm(5)=   0.000000  celldm(6)=   0.000000

     crystal axes: (cart. coord. in units of alat)
               a(1) = (   1.000000   0.000000   0.000000 )  
               a(2) = (   0.000000   1.000000   0.000000 )  
               a(3) = (   0.000000   0.000000   0.701870 )  

     reciprocal axes: (cart. coord. in units 2 pi/alat)
               b(1) = (  1.000000  0.000000  0.000000 )  
               b(2) = (  0.000000  1.000000  0.000000 )  
               b(3) = (  0.000000  0.000000  1.424765 )  


     PseudoPot. # 1 for O  read from file:
     ../../XX_PSEUDO/O_ONCV_PBE_fr.upf
     MD5 check sum: 59c925217d3b58c6d762355590b68b09
     Pseudo is Norm-conserving, Zval =  6.0
     Generated using ONCVPSP code by D. R. Hamann
     Using radial grid of  936 points,  6 beta functions with: 
                l(1) =   0
                l(2) =   0
                l(3) =   1
                l(4) =   1
                l(5) =   1
                l(6) =   1

     PseudoPot. # 2 for Ir read from file:
     ../../XX_PSEUDO/Ir_ONCV_PBE_fr.upf
     MD5 check sum: 924e909c4146afa09f62ee3401806954
     Pseudo is Norm-conserving, Zval = 17.0
     Generated using ONCVPSP code by D. R. Hamann
     Using radial grid of 1310 points, 14 beta functions with: 
                l(1) =   0
                l(2) =   0
                l(3) =   1
                l(4) =   1
                l(5) =   1
                l(6) =   1
                l(7) =   2
                l(8) =   2
                l(9) =   2
               l(10) =   2
               l(11) =   3
               l(12) =   3
               l(13) =   3
               l(14) =   3

     atomic species   valence    mass     pseudopotential
        O              6.00    15.99900     O ( 1.00)
        Ir            17.00   192.21700     Ir( 1.00)

     16 Sym. Ops., with inversion, found ( 8 have fractional translation)


                                    s                        frac. trans.

      isym =  1     identity                                     

 cryst.   s( 1) = (     1          0          0      )
                  (     0          1          0      )
                  (     0          0          1      )

 cart.    s( 1) = (  1.0000000  0.0000000  0.0000000 )
                  (  0.0000000  1.0000000  0.0000000 )
                  (  0.0000000  0.0000000  1.0000000 )


      isym =  2     180 deg rotation - cart. axis [0,0,1]        

 cryst.   s( 2) = (    -1          0          0      )
                  (     0         -1          0      )
                  (     0          0          1      )

 cart.    s( 2) = ( -1.0000000  0.0000000  0.0000000 )
                  (  0.0000000 -1.0000000  0.0000000 )
                  (  0.0000000  0.0000000  1.0000000 )


      isym =  3     180 deg rotation - cart. axis [0,1,0]        

 cryst.   s( 3) = (    -1          0          0      )    f =(  0.5000000 )
                  (     0          1          0      )       ( -0.5000000 )
                  (     0          0         -1      )       (  0.5000000 )

 cart.    s( 3) = ( -1.0000000  0.0000000  0.0000000 )    f =(  0.5000000 )
                  (  0.0000000  1.0000000  0.0000000 )       ( -0.5000000 )
                  (  0.0000000  0.0000000 -1.0000000 )       (  0.3509351 )


      isym =  4     180 deg rotation - cart. axis [1,0,0]        

 cryst.   s( 4) = (     1          0          0      )    f =( -0.5000000 )
                  (     0         -1          0      )       (  0.5000000 )
                  (     0          0         -1      )       (  0.5000000 )

 cart.    s( 4) = (  1.0000000  0.0000000  0.0000000 )    f =( -0.5000000 )
                  (  0.0000000 -1.0000000  0.0000000 )       (  0.5000000 )
                  (  0.0000000  0.0000000 -1.0000000 )       (  0.3509351 )


      isym =  5     180 deg rotation - cart. axis [1,1,0]        

 cryst.   s( 5) = (     0          1          0      )
                  (     1          0          0      )
                  (     0          0         -1      )

 cart.    s( 5) = (  0.0000000  1.0000000  0.0000000 )
                  (  1.0000000  0.0000000  0.0000000 )
                  (  0.0000000  0.0000000 -1.0000000 )


      isym =  6     180 deg rotation - cart. axis [1,-1,0]       

 cryst.   s( 6) = (     0         -1          0      )
                  (    -1          0          0      )
                  (     0          0         -1      )

 cart.    s( 6) = (  0.0000000 -1.0000000  0.0000000 )
                  ( -1.0000000  0.0000000  0.0000000 )
                  (  0.0000000  0.0000000 -1.0000000 )


      isym =  7      90 deg rotation - cart. axis [0,0,-1]       

 cryst.   s( 7) = (     0         -1          0      )    f =( -0.5000000 )
                  (     1          0          0      )       (  0.5000000 )
                  (     0          0          1      )       ( -0.5000000 )

 cart.    s( 7) = (  0.0000000  1.0000000  0.0000000 )    f =( -0.5000000 )
                  ( -1.0000000  0.0000000  0.0000000 )       (  0.5000000 )
                  (  0.0000000  0.0000000  1.0000000 )       ( -0.3509351 )


      isym =  8      90 deg rotation - cart. axis [0,0,1]        

 cryst.   s( 8) = (     0          1          0      )    f =(  0.5000000 )
                  (    -1          0          0      )       ( -0.5000000 )
                  (     0          0          1      )       ( -0.5000000 )

 cart.    s( 8) = (  0.0000000 -1.0000000  0.0000000 )    f =(  0.5000000 )
                  (  1.0000000  0.0000000  0.0000000 )       ( -0.5000000 )
                  (  0.0000000  0.0000000  1.0000000 )       ( -0.3509351 )


      isym =  9     inversion                                    

 cryst.   s( 9) = (    -1          0          0      )
                  (     0         -1          0      )
                  (     0          0         -1      )

 cart.    s( 9) = ( -1.0000000  0.0000000  0.0000000 )
                  (  0.0000000 -1.0000000  0.0000000 )
                  (  0.0000000  0.0000000 -1.0000000 )


      isym = 10     inv. 180 deg rotation - cart. axis [0,0,1]   

 cryst.   s(10) = (     1          0          0      )
                  (     0          1          0      )
                  (     0          0         -1      )

 cart.    s(10) = (  1.0000000  0.0000000  0.0000000 )
                  (  0.0000000  1.0000000  0.0000000 )
                  (  0.0000000  0.0000000 -1.0000000 )


      isym = 11     inv. 180 deg rotation - cart. axis [0,1,0]   

 cryst.   s(11) = (     1          0          0      )    f =( -0.5000000 )
                  (     0         -1          0      )       (  0.5000000 )
                  (     0          0          1      )       ( -0.5000000 )

 cart.    s(11) = (  1.0000000  0.0000000  0.0000000 )    f =( -0.5000000 )
                  (  0.0000000 -1.0000000  0.0000000 )       (  0.5000000 )
                  (  0.0000000  0.0000000  1.0000000 )       ( -0.3509351 )


      isym = 12     inv. 180 deg rotation - cart. axis [1,0,0]   

 cryst.   s(12) = (    -1          0          0      )    f =(  0.5000000 )
                  (     0          1          0      )       ( -0.5000000 )
                  (     0          0          1      )       ( -0.5000000 )

 cart.    s(12) = ( -1.0000000  0.0000000  0.0000000 )    f =(  0.5000000 )
                  (  0.0000000  1.0000000  0.0000000 )       ( -0.5000000 )
                  (  0.0000000  0.0000000  1.0000000 )       ( -0.3509351 )


      isym = 13     inv. 180 deg rotation - cart. axis [1,1,0]   

 cryst.   s(13) = (     0         -1          0      )
                  (    -1          0          0      )
                  (     0          0          1      )

 cart.    s(13) = (  0.0000000 -1.0000000  0.0000000 )
                  ( -1.0000000  0.0000000  0.0000000 )
                  (  0.0000000  0.0000000  1.0000000 )


      isym = 14     inv. 180 deg rotation - cart. axis [1,-1,0]  

 cryst.   s(14) = (     0          1          0      )
                  (     1          0          0      )
                  (     0          0          1      )

 cart.    s(14) = (  0.0000000  1.0000000  0.0000000 )
                  (  1.0000000  0.0000000  0.0000000 )
                  (  0.0000000  0.0000000  1.0000000 )


      isym = 15     inv.  90 deg rotation - cart. axis [0,0,-1]  

 cryst.   s(15) = (     0          1          0      )    f =(  0.5000000 )
                  (    -1          0          0      )       ( -0.5000000 )
                  (     0          0         -1      )       (  0.5000000 )

 cart.    s(15) = (  0.0000000 -1.0000000  0.0000000 )    f =(  0.5000000 )
                  (  1.0000000  0.0000000  0.0000000 )       ( -0.5000000 )
                  (  0.0000000  0.0000000 -1.0000000 )       (  0.3509351 )


      isym = 16     inv.  90 deg rotation - cart. axis [0,0,1]   

 cryst.   s(16) = (     0         -1          0      )    f =( -0.5000000 )
                  (     1          0          0      )       (  0.5000000 )
                  (     0          0         -1      )       (  0.5000000 )

 cart.    s(16) = (  0.0000000  1.0000000  0.0000000 )    f =( -0.5000000 )
                  ( -1.0000000  0.0000000  0.0000000 )       (  0.5000000 )
                  (  0.0000000  0.0000000 -1.0000000 )       (  0.3509351 )


     double point group D_4h(4/mmm)
     there are 14 classes and  4 irreducible representations
     the character table:

       E     -E    2C4   -2C4   C2    2C2' 2C2'' i     -i    2S4   -2S4   s_h 
                               -C2   -2C2' -2C2'                         -s_h 
G_6+   2.00 -2.00  1.41 -1.41  0.00  0.00  0.00  2.00 -2.00  1.41 -1.41  0.00
G_7+   2.00 -2.00 -1.41  1.41  0.00  0.00  0.00  2.00 -2.00 -1.41  1.41  0.00
G_6-   2.00 -2.00  1.41 -1.41  0.00  0.00  0.00 -2.00  2.00 -1.41  1.41  0.00
G_7-   2.00 -2.00 -1.41  1.41  0.00  0.00  0.00 -2.00  2.00  1.41 -1.41  0.00

        2s_v  2s_d
       -2s_v -2s_d
G_6+   0.00  0.00
G_7+   0.00  0.00
G_6-   0.00  0.00
G_7-   0.00  0.00

     the symmetry operations in each class and the name of the first element:

     E             1
          identity                                               
     -E           -1
          identity E                                             
     2C4           7    8
           90 deg rotation - cart. axis [0,0,-1]                 
     -2C4         -7   -8
           90 deg rotation - cart. axis [0,0,-1] E               
      C2  -C2      2   -2
          180 deg rotation - cart. axis [0,0,1]                  
      2C2'-2C2'    3   -3    4   -4
          180 deg rotation - cart. axis [0,1,0]                  
     2C2''-2C2'    5   -5   -6    6
          180 deg rotation - cart. axis [1,1,0]                  
     i             9
          inversion                                              
     -i           -9
          inversion E                                            
     2S4          15   16
          inv.  90 deg rotation - cart. axis [0,0,-1]            
     -2S4        -15  -16
          inv.  90 deg rotation - cart. axis [0,0,-1] E          
      s_h -s_h    10  -10
          inv. 180 deg rotation - cart. axis [0,0,1]             
      2s_v-2s_v   11  -11   12  -12
          inv. 180 deg rotation - cart. axis [0,1,0]             
      2s_d-2s_d   13  -13  -14   14
          inv. 180 deg rotation - cart. axis [1,1,0]             

   Cartesian axes

     site n.     atom                  positions (alat units)
         1           Ir  tau(   1) = (   0.0000000   0.0000000   0.0000000  )
         2           Ir  tau(   2) = (   0.5000000   0.5000000   0.3509351  )
         3           O   tau(   3) = (   0.1916000   0.8084000   0.3509351  )
         4           O   tau(   4) = (   0.3084000   0.3084000   0.0000000  )
         5           O   tau(   5) = (   0.6916000   0.6916000   0.0000000  )
         6           O   tau(   6) = (   0.8084000   0.1916000   0.3509351  )

   Crystallographic axes

     site n.     atom                  positions (cryst. coord.)
         1           Ir  tau(   1) = (  0.0000000  0.0000000  0.0000000  )
         2           Ir  tau(   2) = (  0.5000000  0.5000000  0.5000000  )
         3           O   tau(   3) = (  0.1916000  0.8084000  0.5000000  )
         4           O   tau(   4) = (  0.3084000  0.3084000  0.0000000  )
         5           O   tau(   5) = (  0.6916000  0.6916000  0.0000000  )
         6           O   tau(   6) = (  0.8084000  0.1916000  0.5000000  )

     number of k points=    84  Methfessel-Paxton smearing, width (Ry)=  0.0050
                       cart. coord. in units 2pi/alat
        k(    1) = (   0.0000000   0.0000000   0.0000000), wk =   0.0013774
        k(    2) = (   0.0000000   0.0000000   0.2374608), wk =   0.0027548
        k(    3) = (   0.0000000   0.0000000   0.4749216), wk =   0.0027548
        k(    4) = (   0.0000000   0.0000000  -0.7123824), wk =   0.0013774
        k(    5) = (   0.0000000   0.0909091   0.0000000), wk =   0.0055096
        k(    6) = (   0.0000000   0.0909091   0.2374608), wk =   0.0110193
        k(    7) = (   0.0000000   0.0909091   0.4749216), wk =   0.0110193
        k(    8) = (   0.0000000   0.0909091  -0.7123824), wk =   0.0055096
        k(    9) = (   0.0000000   0.1818182   0.0000000), wk =   0.0055096
        k(   10) = (   0.0000000   0.1818182   0.2374608), wk =   0.0110193
        k(   11) = (   0.0000000   0.1818182   0.4749216), wk =   0.0110193
        k(   12) = (   0.0000000   0.1818182  -0.7123824), wk =   0.0055096
        k(   13) = (   0.0000000   0.2727273   0.0000000), wk =   0.0055096
        k(   14) = (   0.0000000   0.2727273   0.2374608), wk =   0.0110193
        k(   15) = (   0.0000000   0.2727273   0.4749216), wk =   0.0110193
        k(   16) = (   0.0000000   0.2727273  -0.7123824), wk =   0.0055096
        k(   17) = (   0.0000000   0.3636364   0.0000000), wk =   0.0055096
        k(   18) = (   0.0000000   0.3636364   0.2374608), wk =   0.0110193
        k(   19) = (   0.0000000   0.3636364   0.4749216), wk =   0.0110193
        k(   20) = (   0.0000000   0.3636364  -0.7123824), wk =   0.0055096
        k(   21) = (   0.0000000   0.4545455   0.0000000), wk =   0.0055096
        k(   22) = (   0.0000000   0.4545455   0.2374608), wk =   0.0110193
        k(   23) = (   0.0000000   0.4545455   0.4749216), wk =   0.0110193
        k(   24) = (   0.0000000   0.4545455  -0.7123824), wk =   0.0055096
        k(   25) = (   0.0909091   0.0909091   0.0000000), wk =   0.0055096
        k(   26) = (   0.0909091   0.0909091   0.2374608), wk =   0.0110193
        k(   27) = (   0.0909091   0.0909091   0.4749216), wk =   0.0110193
        k(   28) = (   0.0909091   0.0909091  -0.7123824), wk =   0.0055096
        k(   29) = (   0.0909091   0.1818182   0.0000000), wk =   0.0110193
        k(   30) = (   0.0909091   0.1818182   0.2374608), wk =   0.0220386
        k(   31) = (   0.0909091   0.1818182   0.4749216), wk =   0.0220386
        k(   32) = (   0.0909091   0.1818182  -0.7123824), wk =   0.0110193
        k(   33) = (   0.0909091   0.2727273   0.0000000), wk =   0.0110193
        k(   34) = (   0.0909091   0.2727273   0.2374608), wk =   0.0220386
        k(   35) = (   0.0909091   0.2727273   0.4749216), wk =   0.0220386
        k(   36) = (   0.0909091   0.2727273  -0.7123824), wk =   0.0110193
        k(   37) = (   0.0909091   0.3636364   0.0000000), wk =   0.0110193
        k(   38) = (   0.0909091   0.3636364   0.2374608), wk =   0.0220386
        k(   39) = (   0.0909091   0.3636364   0.4749216), wk =   0.0220386
        k(   40) = (   0.0909091   0.3636364  -0.7123824), wk =   0.0110193
        k(   41) = (   0.0909091   0.4545455   0.0000000), wk =   0.0110193
        k(   42) = (   0.0909091   0.4545455   0.2374608), wk =   0.0220386
        k(   43) = (   0.0909091   0.4545455   0.4749216), wk =   0.0220386
        k(   44) = (   0.0909091   0.4545455  -0.7123824), wk =   0.0110193
        k(   45) = (   0.1818182   0.1818182   0.0000000), wk =   0.0055096
        k(   46) = (   0.1818182   0.1818182   0.2374608), wk =   0.0110193
        k(   47) = (   0.1818182   0.1818182   0.4749216), wk =   0.0110193
        k(   48) = (   0.1818182   0.1818182  -0.7123824), wk =   0.0055096
        k(   49) = (   0.1818182   0.2727273   0.0000000), wk =   0.0110193
        k(   50) = (   0.1818182   0.2727273   0.2374608), wk =   0.0220386
        k(   51) = (   0.1818182   0.2727273   0.4749216), wk =   0.0220386
        k(   52) = (   0.1818182   0.2727273  -0.7123824), wk =   0.0110193
        k(   53) = (   0.1818182   0.3636364   0.0000000), wk =   0.0110193
        k(   54) = (   0.1818182   0.3636364   0.2374608), wk =   0.0220386
        k(   55) = (   0.1818182   0.3636364   0.4749216), wk =   0.0220386
        k(   56) = (   0.1818182   0.3636364  -0.7123824), wk =   0.0110193
        k(   57) = (   0.1818182   0.4545455   0.0000000), wk =   0.0110193
        k(   58) = (   0.1818182   0.4545455   0.2374608), wk =   0.0220386
        k(   59) = (   0.1818182   0.4545455   0.4749216), wk =   0.0220386
        k(   60) = (   0.1818182   0.4545455  -0.7123824), wk =   0.0110193
        k(   61) = (   0.2727273   0.2727273   0.0000000), wk =   0.0055096
        k(   62) = (   0.2727273   0.2727273   0.2374608), wk =   0.0110193
        k(   63) = (   0.2727273   0.2727273   0.4749216), wk =   0.0110193
        k(   64) = (   0.2727273   0.2727273  -0.7123824), wk =   0.0055096
        k(   65) = (   0.2727273   0.3636364   0.0000000), wk =   0.0110193
        k(   66) = (   0.2727273   0.3636364   0.2374608), wk =   0.0220386
        k(   67) = (   0.2727273   0.3636364   0.4749216), wk =   0.0220386
        k(   68) = (   0.2727273   0.3636364  -0.7123824), wk =   0.0110193
        k(   69) = (   0.2727273   0.4545455   0.0000000), wk =   0.0110193
        k(   70) = (   0.2727273   0.4545455   0.2374608), wk =   0.0220386
        k(   71) = (   0.2727273   0.4545455   0.4749216), wk =   0.0220386
        k(   72) = (   0.2727273   0.4545455  -0.7123824), wk =   0.0110193
        k(   73) = (   0.3636364   0.3636364   0.0000000), wk =   0.0055096
        k(   74) = (   0.3636364   0.3636364   0.2374608), wk =   0.0110193
        k(   75) = (   0.3636364   0.3636364   0.4749216), wk =   0.0110193
        k(   76) = (   0.3636364   0.3636364  -0.7123824), wk =   0.0055096
        k(   77) = (   0.3636364   0.4545455   0.0000000), wk =   0.0110193
        k(   78) = (   0.3636364   0.4545455   0.2374608), wk =   0.0220386
        k(   79) = (   0.3636364   0.4545455   0.4749216), wk =   0.0220386
        k(   80) = (   0.3636364   0.4545455  -0.7123824), wk =   0.0110193
        k(   81) = (   0.4545455   0.4545455   0.0000000), wk =   0.0055096
        k(   82) = (   0.4545455   0.4545455   0.2374608), wk =   0.0110193
        k(   83) = (   0.4545455   0.4545455   0.4749216), wk =   0.0110193
        k(   84) = (   0.4545455   0.4545455  -0.7123824), wk =   0.0055096

                       cryst. coord.
        k(    1) = (   0.0000000   0.0000000   0.0000000), wk =   0.0013774
        k(    2) = (   0.0000000   0.0000000   0.1666667), wk =   0.0027548
        k(    3) = (   0.0000000   0.0000000   0.3333333), wk =   0.0027548
        k(    4) = (   0.0000000   0.0000000  -0.5000000), wk =   0.0013774
        k(    5) = (   0.0000000   0.0909091   0.0000000), wk =   0.0055096
        k(    6) = (   0.0000000   0.0909091   0.1666667), wk =   0.0110193
        k(    7) = (   0.0000000   0.0909091   0.3333333), wk =   0.0110193
        k(    8) = (   0.0000000   0.0909091  -0.5000000), wk =   0.0055096
        k(    9) = (   0.0000000   0.1818182   0.0000000), wk =   0.0055096
        k(   10) = (   0.0000000   0.1818182   0.1666667), wk =   0.0110193
        k(   11) = (   0.0000000   0.1818182   0.3333333), wk =   0.0110193
        k(   12) = (   0.0000000   0.1818182  -0.5000000), wk =   0.0055096
        k(   13) = (   0.0000000   0.2727273   0.0000000), wk =   0.0055096
        k(   14) = (   0.0000000   0.2727273   0.1666667), wk =   0.0110193
        k(   15) = (   0.0000000   0.2727273   0.3333333), wk =   0.0110193
        k(   16) = (   0.0000000   0.2727273  -0.5000000), wk =   0.0055096
        k(   17) = (   0.0000000   0.3636364   0.0000000), wk =   0.0055096
        k(   18) = (   0.0000000   0.3636364   0.1666667), wk =   0.0110193
        k(   19) = (   0.0000000   0.3636364   0.3333333), wk =   0.0110193
        k(   20) = (   0.0000000   0.3636364  -0.5000000), wk =   0.0055096
        k(   21) = (   0.0000000   0.4545455   0.0000000), wk =   0.0055096
        k(   22) = (   0.0000000   0.4545455   0.1666667), wk =   0.0110193
        k(   23) = (   0.0000000   0.4545455   0.3333333), wk =   0.0110193
        k(   24) = (   0.0000000   0.4545455  -0.5000000), wk =   0.0055096
        k(   25) = (   0.0909091   0.0909091   0.0000000), wk =   0.0055096
        k(   26) = (   0.0909091   0.0909091   0.1666667), wk =   0.0110193
        k(   27) = (   0.0909091   0.0909091   0.3333333), wk =   0.0110193
        k(   28) = (   0.0909091   0.0909091  -0.5000000), wk =   0.0055096
        k(   29) = (   0.0909091   0.1818182   0.0000000), wk =   0.0110193
        k(   30) = (   0.0909091   0.1818182   0.1666667), wk =   0.0220386
        k(   31) = (   0.0909091   0.1818182   0.3333333), wk =   0.0220386
        k(   32) = (   0.0909091   0.1818182  -0.5000000), wk =   0.0110193
        k(   33) = (   0.0909091   0.2727273   0.0000000), wk =   0.0110193
        k(   34) = (   0.0909091   0.2727273   0.1666667), wk =   0.0220386
        k(   35) = (   0.0909091   0.2727273   0.3333333), wk =   0.0220386
        k(   36) = (   0.0909091   0.2727273  -0.5000000), wk =   0.0110193
        k(   37) = (   0.0909091   0.3636364   0.0000000), wk =   0.0110193
        k(   38) = (   0.0909091   0.3636364   0.1666667), wk =   0.0220386
        k(   39) = (   0.0909091   0.3636364   0.3333333), wk =   0.0220386
        k(   40) = (   0.0909091   0.3636364  -0.5000000), wk =   0.0110193
        k(   41) = (   0.0909091   0.4545455   0.0000000), wk =   0.0110193
        k(   42) = (   0.0909091   0.4545455   0.1666667), wk =   0.0220386
        k(   43) = (   0.0909091   0.4545455   0.3333333), wk =   0.0220386
        k(   44) = (   0.0909091   0.4545455  -0.5000000), wk =   0.0110193
        k(   45) = (   0.1818182   0.1818182   0.0000000), wk =   0.0055096
        k(   46) = (   0.1818182   0.1818182   0.1666667), wk =   0.0110193
        k(   47) = (   0.1818182   0.1818182   0.3333333), wk =   0.0110193
        k(   48) = (   0.1818182   0.1818182  -0.5000000), wk =   0.0055096
        k(   49) = (   0.1818182   0.2727273   0.0000000), wk =   0.0110193
        k(   50) = (   0.1818182   0.2727273   0.1666667), wk =   0.0220386
        k(   51) = (   0.1818182   0.2727273   0.3333333), wk =   0.0220386
        k(   52) = (   0.1818182   0.2727273  -0.5000000), wk =   0.0110193
        k(   53) = (   0.1818182   0.3636364   0.0000000), wk =   0.0110193
        k(   54) = (   0.1818182   0.3636364   0.1666667), wk =   0.0220386
        k(   55) = (   0.1818182   0.3636364   0.3333333), wk =   0.0220386
        k(   56) = (   0.1818182   0.3636364  -0.5000000), wk =   0.0110193
        k(   57) = (   0.1818182   0.4545455   0.0000000), wk =   0.0110193
        k(   58) = (   0.1818182   0.4545455   0.1666667), wk =   0.0220386
        k(   59) = (   0.1818182   0.4545455   0.3333333), wk =   0.0220386
        k(   60) = (   0.1818182   0.4545455  -0.5000000), wk =   0.0110193
        k(   61) = (   0.2727273   0.2727273   0.0000000), wk =   0.0055096
        k(   62) = (   0.2727273   0.2727273   0.1666667), wk =   0.0110193
        k(   63) = (   0.2727273   0.2727273   0.3333333), wk =   0.0110193
        k(   64) = (   0.2727273   0.2727273  -0.5000000), wk =   0.0055096
        k(   65) = (   0.2727273   0.3636364   0.0000000), wk =   0.0110193
        k(   66) = (   0.2727273   0.3636364   0.1666667), wk =   0.0220386
        k(   67) = (   0.2727273   0.3636364   0.3333333), wk =   0.0220386
        k(   68) = (   0.2727273   0.3636364  -0.5000000), wk =   0.0110193
        k(   69) = (   0.2727273   0.4545455   0.0000000), wk =   0.0110193
        k(   70) = (   0.2727273   0.4545455   0.1666667), wk =   0.0220386
        k(   71) = (   0.2727273   0.4545455   0.3333333), wk =   0.0220386
        k(   72) = (   0.2727273   0.4545455  -0.5000000), wk =   0.0110193
        k(   73) = (   0.3636364   0.3636364   0.0000000), wk =   0.0055096
        k(   74) = (   0.3636364   0.3636364   0.1666667), wk =   0.0110193
        k(   75) = (   0.3636364   0.3636364   0.3333333), wk =   0.0110193
        k(   76) = (   0.3636364   0.3636364  -0.5000000), wk =   0.0055096
        k(   77) = (   0.3636364   0.4545455   0.0000000), wk =   0.0110193
        k(   78) = (   0.3636364   0.4545455   0.1666667), wk =   0.0220386
        k(   79) = (   0.3636364   0.4545455   0.3333333), wk =   0.0220386
        k(   80) = (   0.3636364   0.4545455  -0.5000000), wk =   0.0110193
        k(   81) = (   0.4545455   0.4545455   0.0000000), wk =   0.0055096
        k(   82) = (   0.4545455   0.4545455   0.1666667), wk =   0.0110193
        k(   83) = (   0.4545455   0.4545455   0.3333333), wk =   0.0110193
        k(   84) = (   0.4545455   0.4545455  -0.5000000), wk =   0.0055096

     Dense  grid:    42999 G-vectors     FFT dimensions: (  50,  50,  36)

     Dynamical RAM for                 wfc:       0.36 MB

     Dynamical RAM for     wfc (w. buffer):      30.32 MB

     Dynamical RAM for           str. fact:       0.04 MB

     Dynamical RAM for           local pot:       0.00 MB

     Dynamical RAM for          nlocal pot:       0.46 MB

     Dynamical RAM for                qrad:      20.10 MB

     Dynamical RAM for          rho,v,vnew:       0.70 MB

     Dynamical RAM for               rhoin:       0.23 MB

     Dynamical RAM for            rho*nmix:       1.31 MB

     Dynamical RAM for           G-vectors:       0.09 MB

     Dynamical RAM for          h,s,v(r/c):       0.04 MB

     Dynamical RAM for          <psi|beta>:       0.38 MB

     Dynamical RAM for                 psi:       0.71 MB

     Dynamical RAM for                hpsi:       0.71 MB

     Dynamical RAM for      wfcinit/wfcrot:       0.67 MB

     Estimated static dynamical RAM per process >      52.31 MB

     Estimated max dynamical RAM per process >      55.47 MB

     Estimated total dynamical RAM >       1.73 GB

     Initial potential from superposition of free atoms

     starting charge      57.9997, renormalised to      58.0000
     Starting wfcs are   72 randomized atomic wfcs

     total cpu time spent up to now is        4.4 secs

     Self-consistent Calculation

     iteration #  1     ecut=    80.00 Ry     beta= 0.70
     Davidson diagonalization with overlap

---- Real-time Memory Report at c_bands before calling an iterative solver
           105 MiB given to the printing process from OS
             0 MiB allocation reported by mallinfo(arena+hblkhd)
        228327 MiB available memory on the node where the printing process lives
------------------
     ethr =  1.00E-02,  avg # of iterations =  2.7

     total cpu time spent up to now is       19.0 secs

     total energy              =    -552.42697280 Ry
     estimated scf accuracy    <       1.21455293 Ry

     iteration #  2     ecut=    80.00 Ry     beta= 0.70
     Davidson diagonalization with overlap

---- Real-time Memory Report at c_bands before calling an iterative solver
           115 MiB given to the printing process from OS
             0 MiB allocation reported by mallinfo(arena+hblkhd)
        228140 MiB available memory on the node where the printing process lives
------------------
     ethr =  2.09E-03,  avg # of iterations =  2.0

     total cpu time spent up to now is       34.8 secs

     total energy              =    -552.29619866 Ry
     estimated scf accuracy    <       4.23362501 Ry

     iteration #  3     ecut=    80.00 Ry     beta= 0.70
     Davidson diagonalization with overlap

---- Real-time Memory Report at c_bands before calling an iterative solver
           117 MiB given to the printing process from OS
             0 MiB allocation reported by mallinfo(arena+hblkhd)
        228105 MiB available memory on the node where the printing process lives
------------------
     ethr =  2.09E-03,  avg # of iterations =  2.0

     total cpu time spent up to now is       49.7 secs

     total energy              =    -553.07560216 Ry
     estimated scf accuracy    <       0.03251774 Ry

     iteration #  4     ecut=    80.00 Ry     beta= 0.70
     Davidson diagonalization with overlap

---- Real-time Memory Report at c_bands before calling an iterative solver
           119 MiB given to the printing process from OS
             0 MiB allocation reported by mallinfo(arena+hblkhd)
        228084 MiB available memory on the node where the printing process lives
------------------
     ethr =  5.61E-05,  avg # of iterations =  3.0

     total cpu time spent up to now is       65.2 secs

     total energy              =    -553.07927737 Ry
     estimated scf accuracy    <       0.00450400 Ry

     iteration #  5     ecut=    80.00 Ry     beta= 0.70
     Davidson diagonalization with overlap

---- Real-time Memory Report at c_bands before calling an iterative solver
           121 MiB given to the printing process from OS
             0 MiB allocation reported by mallinfo(arena+hblkhd)
        228061 MiB available memory on the node where the printing process lives
------------------
     ethr =  7.77E-06,  avg # of iterations =  2.7

     total cpu time spent up to now is       78.7 secs

     total energy              =    -553.08004639 Ry
     estimated scf accuracy    <       0.00024222 Ry

     iteration #  6     ecut=    80.00 Ry     beta= 0.70
     Davidson diagonalization with overlap

---- Real-time Memory Report at c_bands before calling an iterative solver
           121 MiB given to the printing process from OS
             0 MiB allocation reported by mallinfo(arena+hblkhd)
        228052 MiB available memory on the node where the printing process lives
------------------
     ethr =  4.18E-07,  avg # of iterations =  3.3

     total cpu time spent up to now is       92.7 secs

     total energy              =    -553.08007803 Ry
     estimated scf accuracy    <       0.00000861 Ry

     iteration #  7     ecut=    80.00 Ry     beta= 0.70
     Davidson diagonalization with overlap

---- Real-time Memory Report at c_bands before calling an iterative solver
           122 MiB given to the printing process from OS
             0 MiB allocation reported by mallinfo(arena+hblkhd)
        228050 MiB available memory on the node where the printing process lives
------------------
     ethr =  1.48E-08,  avg # of iterations =  2.0

     total cpu time spent up to now is      108.3 secs

     total energy              =    -553.08008106 Ry
     estimated scf accuracy    <       0.00000067 Ry

     iteration #  8     ecut=    80.00 Ry     beta= 0.70
     Davidson diagonalization with overlap

---- Real-time Memory Report at c_bands before calling an iterative solver
           124 MiB given to the printing process from OS
             0 MiB allocation reported by mallinfo(arena+hblkhd)
        227996 MiB available memory on the node where the printing process lives
------------------
     ethr =  1.16E-09,  avg # of iterations =  2.0

     total cpu time spent up to now is      121.2 secs

     total energy              =    -553.08008109 Ry
     estimated scf accuracy    <       0.00000009 Ry

     iteration #  9     ecut=    80.00 Ry     beta= 0.70
     Davidson diagonalization with overlap

---- Real-time Memory Report at c_bands before calling an iterative solver
           125 MiB given to the printing process from OS
             0 MiB allocation reported by mallinfo(arena+hblkhd)
        228001 MiB available memory on the node where the printing process lives
------------------
     ethr =  1.58E-10,  avg # of iterations =  2.0

     total cpu time spent up to now is      135.9 secs

     total energy              =    -553.08008111 Ry
     estimated scf accuracy    <          4.8E-09 Ry

     iteration # 10     ecut=    80.00 Ry     beta= 0.70
     Davidson diagonalization with overlap

---- Real-time Memory Report at c_bands before calling an iterative solver
           125 MiB given to the printing process from OS
             0 MiB allocation reported by mallinfo(arena+hblkhd)
        227995 MiB available memory on the node where the printing process lives
------------------
     ethr =  8.28E-12,  avg # of iterations =  2.3

     total cpu time spent up to now is      150.8 secs

     End of self-consistent calculation

          k = 0.0000 0.0000 0.0000 (  5409 PWs)   bands (ev):

   -79.3838 -79.3838 -79.3825 -79.3825 -46.2264 -46.2264 -46.2157 -46.2157
   -32.7655 -32.7655 -32.7550 -32.7550 -32.6221 -32.6221 -32.6076 -32.6076
    -7.0732  -7.0732  -5.9174  -5.9174  -5.0022  -5.0022  -4.8008  -4.8008
     4.2692   4.2692   4.5163   4.5163   6.0334   6.0334   6.1448   6.1448
     6.2592   6.2592   8.7868   8.7868   8.9391   8.9391   9.1967   9.1967
    10.3340  10.3340  10.9897  10.9897  10.9903  10.9903  11.0322  11.0322
    11.2044  11.2044  11.3857  11.3857  11.6482  11.6482  11.6725  11.6725
    12.0584  12.0584  14.6454  14.6454  15.0727  15.0727  17.6889  17.6889
    17.8973  17.8973  18.0460  18.0460  19.4483  19.4483

     occupation numbers 
     1.0000   1.0000   1.0000   1.0000   1.0000   1.0000   1.0000   1.0000
     1.0000   1.0000   1.0000   1.0000   1.0000   1.0000   1.0000   1.0000
     1.0000   1.0000   1.0000   1.0000   1.0000   1.0000   1.0000   1.0000
     1.0000   1.0000   1.0000   1.0000   1.0000   1.0000   1.0000   1.0000
     1.0000   1.0000   1.0000   1.0000   1.0000   1.0000   1.0000   1.0000
     1.0000   1.0000   1.0000   1.0000   1.0000   1.0000   1.0000   1.0000
     1.0000   1.0000   1.0000   1.0000   1.0000   1.0000   1.0000   1.0000
     1.0000   1.0000  -0.0000  -0.0000  -0.0000  -0.0000  -0.0000  -0.0000
    -0.0000  -0.0000  -0.0000  -0.0000  -0.0000  -0.0000

          k = 0.0000 0.0000 0.2375 (  5377 PWs)   bands (ev):

   -79.3832 -79.3832 -79.3820 -79.3820 -46.2285 -46.2285 -46.2192 -46.2192
   -32.7721 -32.7721 -32.7695 -32.7695 -32.6318 -32.6318 -32.6125 -32.6125
    -6.8280  -6.8280  -5.7955  -5.7955  -5.1134  -5.1134  -4.9508  -4.9508
     4.6295   4.6295   4.7729   4.7729   6.2448   6.2448   6.2949   6.2949
     6.5268   6.5268   7.9196   7.9196   8.9873   8.9873   9.2935   9.2935
     9.3550   9.3550   9.8670   9.8670   9.9223   9.9223  11.1112  11.1112
    11.6928  11.6928  11.7430  11.7430  11.9344  11.9344  12.6511  12.6511
    12.6952  12.6952  14.8156  14.8156  15.1894  15.1894  17.1037  17.1037
    17.4100  17.4100  18.4260  18.4260  19.1583  19.1583

     occupation numbers 
     1.0000   1.0000   1.0000   1.0000   1.0000   1.0000   1.0000   1.0000
     1.0000   1.0000   1.0000   1.0000   1.0000   1.0000   1.0000   1.0000
     1.0000   1.0000   1.0000   1.0000   1.0000   1.0000   1.0000   1.0000
     1.0000   1.0000   1.0000   1.0000   1.0000   1.0000   1.0000   1.0000
     1.0000   1.0000   1.0000   1.0000   1.0000   1.0000   1.0000   1.0000
     1.0000   1.0000   1.0000   1.0000   1.0000   1.0000   1.0000   1.0000
     1.0000   1.0000   1.0000   1.0000   1.0000   1.0000   1.0000   1.0000
     1.0000   1.0000  -0.0000  -0.0000  -0.0000  -0.0000  -0.0000  -0.0000
    -0.0000  -0.0000  -0.0000  -0.0000  -0.0000  -0.0000

          k = 0.0000 0.0000 0.4749 (  5385 PWs)   bands (ev):

   -79.3818 -79.3818 -79.3811 -79.3811 -46.2322 -46.2322 -46.2268 -46.2268
   -32.8001 -32.8001 -32.7955 -32.7955 -32.6393 -32.6393 -32.6219 -32.6219
    -6.2473  -6.2473  -5.6210  -5.6210  -5.3120  -5.3120  -5.2430  -5.2430
     5.3326   5.3326   5.5062   5.5062   6.5569   6.5569   6.7267   6.7267
     6.8444   6.8444   7.3066   7.3066   7.6380   7.6380   8.6710   8.6710
     8.8255   8.8255   9.6611   9.6611   9.9073   9.9073   9.9399   9.9399
    11.7952  11.7952  12.1876  12.1876  12.2743  12.2743  13.5533  13.5533
    13.6456  13.6456  14.1942  14.1942  15.9779  15.9779  16.3339  16.3339
    16.6290  16.6290  17.3639  17.3639  20.8849  20.8849

     occupation numbers 
     1.0000   1.0000   1.0000   1.0000   1.0000   1.0000   1.0000   1.0000
     1.0000   1.0000   1.0000   1.0000   1.0000   1.0000   1.0000   1.0000
     1.0000   1.0000   1.0000   1.0000   1.0000   1.0000   1.0000   1.0000
     1.0000   1.0000   1.0000   1.0000   1.0000   1.0000   1.0000   1.0000
     1.0000   1.0000   1.0000   1.0000   1.0000   1.0000   1.0000   1.0000
     1.0000   1.0000   1.0000   1.0000   1.0000   1.0000   1.0000   1.0000
     1.0000   1.0000   1.0000   1.0000   1.0000   1.0000   1.0000   1.0000
     1.0001   1.0001  -0.0000  -0.0000  -0.0000  -0.0000  -0.0000  -0.0000
    -0.0000  -0.0000  -0.0000  -0.0000  -0.0000  -0.0000

          k = 0.0000 0.0000-0.7124 (  5314 PWs)   bands (ev):

   -79.3809 -79.3809 -79.3809 -79.3809 -46.2323 -46.2323 -46.2323 -46.2323
   -32.8136 -32.8136 -32.8136 -32.8136 -32.6322 -32.6322 -32.6322 -32.6322
    -5.7325  -5.7325  -5.7325  -5.7325  -5.3996  -5.3996  -5.3996  -5.3996
     5.7333   5.7333   5.7333   5.7333   6.7031   6.7031   6.7031   6.7031
     7.0985   7.0985   7.0985   7.0985   8.2021   8.2021   8.2021   8.2021
     8.5526   8.5526   8.5526   8.5526   9.9582   9.9582   9.9582   9.9582
    11.8956  11.8956  11.8956  11.8956  13.0835  13.0835  13.0835  13.0835
    14.1209  14.1209  14.1209  14.1209  16.0948  16.0948  16.0948  16.0948
    16.6096  16.6096  16.6096  16.6096  22.9244  22.9244

     occupation numbers 
     1.0000   1.0000   1.0000   1.0000   1.0000   1.0000   1.0000   1.0000
     1.0000   1.0000   1.0000   1.0000   1.0000   1.0000   1.0000   1.0000
     1.0000   1.0000   1.0000   1.0000   1.0000   1.0000   1.0000   1.0000
     1.0000   1.0000   1.0000   1.0000   1.0000   1.0000   1.0000   1.0000
     1.0000   1.0000   1.0000   1.0000   1.0000   1.0000   1.0000   1.0000
     1.0000   1.0000   1.0000   1.0000   1.0000   1.0000   1.0000   1.0000
     1.0000   1.0000   1.0000   1.0000   1.0000   1.0000   1.0000   1.0000
    -0.0000  -0.0000  -0.0000  -0.0000  -0.0000  -0.0000  -0.0000  -0.0000
    -0.0000  -0.0000  -0.0000  -0.0000  -0.0000  -0.0000

          k = 0.0000 0.0909 0.0000 (  5375 PWs)   bands (ev):

   -79.3838 -79.3838 -79.3825 -79.3825 -46.2262 -46.2262 -46.2159 -46.2159
   -32.7650 -32.7650 -32.7550 -32.7550 -32.6221 -32.6221 -32.6082 -32.6082
    -7.0419  -7.0419  -5.9129  -5.9129  -5.0292  -5.0292  -4.8335  -4.8335
     4.3498   4.3498   4.5767   4.5767   6.0460   6.0460   6.1522   6.1522
     6.3106   6.3106   8.7480   8.7480   8.8162   8.8162   9.0765   9.0765
    10.1430  10.1430  10.6773  10.6773  10.8241  10.8241  11.2477  11.2477
    11.3360  11.3360  11.5466  11.5466  11.6465  11.6465  11.7699  11.7699
    12.1751  12.1751  14.7819  14.7819  15.0122  15.0122  17.6588  17.6588
    18.0006  18.0006  18.0426  18.0426  19.3733  19.3733

     occupation numbers 
     1.0000   1.0000   1.0000   1.0000   1.0000   1.0000   1.0000   1.0000
     1.0000   1.0000   1.0000   1.0000   1.0000   1.0000   1.0000   1.0000
     1.0000   1.0000   1.0000   1.0000   1.0000   1.0000   1.0000   1.0000
     1.0000   1.0000   1.0000   1.0000   1.0000   1.0000   1.0000   1.0000
     1.0000   1.0000   1.0000   1.0000   1.0000   1.0000   1.0000   1.0000
     1.0000   1.0000   1.0000   1.0000   1.0000   1.0000   1.0000   1.0000
     1.0000   1.0000   1.0000   1.0000   1.0000   1.0000   1.0000   1.0000
     1.0000   1.0000  -0.0000  -0.0000  -0.0000  -0.0000  -0.0000  -0.0000
    -0.0000  -0.0000  -0.0000  -0.0000  -0.0000  -0.0000

          k = 0.0000 0.0909 0.2375 (  5369 PWs)   bands (ev):

   -79.3831 -79.3831 -79.3821 -79.3821 -46.2283 -46.2283 -46.2194 -46.2194
   -32.7733 -32.7733 -32.7680 -32.7680 -32.6318 -32.6318 -32.6130 -32.6130
    -6.7993  -6.7993  -5.7884  -5.7884  -5.1383  -5.1383  -4.9792  -4.9792
     4.6952   4.6952   4.8317   4.8317   6.2378   6.2378   6.2906   6.2906
     6.6117   6.6117   7.8685   7.8685   8.8070   8.8070   9.1401   9.1401
     9.3906   9.3906   9.8321   9.8321   9.9223   9.9223  11.1814  11.1814
    11.5646  11.5646  11.8713  11.8713  12.0236  12.0236  12.6248  12.6248
    12.7531  12.7531  14.7612  14.7612  15.3028  15.3028  17.0315  17.0315
    17.3427  17.3427  18.5650  18.5650  19.1622  19.1622

     occupation numbers 
     1.0000   1.0000   1.0000   1.0000   1.0000   1.0000   1.0000   1.0000
     1.0000   1.0000   1.0000   1.0000   1.0000   1.0000   1.0000   1.0000
     1.0000   1.0000   1.0000   1.0000   1.0000   1.0000   1.0000   1.0000
     1.0000   1.0000   1.0000   1.0000   1.0000   1.0000   1.0000   1.0000
     1.0000   1.0000   1.0000   1.0000   1.0000   1.0000   1.0000   1.0000
     1.0000   1.0000   1.0000   1.0000   1.0000   1.0000   1.0000   1.0000
     1.0000   1.0000   1.0000   1.0000   1.0000   1.0000   1.0000   1.0000
     1.0000   1.0000  -0.0000  -0.0000  -0.0000  -0.0000  -0.0000  -0.0000
    -0.0000  -0.0000  -0.0000  -0.0000  -0.0000  -0.0000

          k = 0.0000 0.0909 0.4749 (  5391 PWs)   bands (ev):

   -79.3818 -79.3818 -79.3811 -79.3811 -46.2321 -46.2321 -46.2269 -46.2269
   -32.8023 -32.8023 -32.7932 -32.7932 -32.6394 -32.6394 -32.6219 -32.6219
    -6.2295  -6.2295  -5.6191  -5.6191  -5.3268  -5.3268  -5.2519  -5.2519
     5.3715   5.3715   5.5317   5.5317   6.4495   6.4495   6.7181   6.7181
     6.9057   6.9057   7.4054   7.4054   7.5366   7.5366   8.7115   8.7115
     8.8605   8.8605   9.5888   9.5888   9.8205   9.8205  10.0405  10.0405
    11.8390  11.8390  12.1837  12.1837  12.2242  12.2242  13.4652  13.4652
    13.6527  13.6527  14.2153  14.2153  15.9688  15.9688  16.2016  16.2016
    16.6369  16.6369  17.5626  17.5626  20.9380  20.9380

     occupation numbers 
     1.0000   1.0000   1.0000   1.0000   1.0000   1.0000   1.0000   1.0000
     1.0000   1.0000   1.0000   1.0000   1.0000   1.0000   1.0000   1.0000
     1.0000   1.0000   1.0000   1.0000   1.0000   1.0000   1.0000   1.0000
     1.0000   1.0000   1.0000   1.0000   1.0000   1.0000   1.0000   1.0000
     1.0000   1.0000   1.0000   1.0000   1.0000   1.0000   1.0000   1.0000
     1.0000   1.0000   1.0000   1.0000   1.0000   1.0000   1.0000   1.0000
     1.0000   1.0000   1.0000   1.0000   1.0000   1.0000   1.0000   1.0000
     1.0002   1.0002  -0.0000  -0.0000  -0.0000  -0.0000  -0.0000  -0.0000
    -0.0000  -0.0000  -0.0000  -0.0000  -0.0000  -0.0000

          k = 0.0000 0.0909-0.7124 (  5364 PWs)   bands (ev):

   -79.3809 -79.3809 -79.3809 -79.3809 -46.2326 -46.2326 -46.2320 -46.2320
   -32.8180 -32.8180 -32.8093 -32.8093 -32.6350 -32.6350 -32.6294 -32.6294
    -5.7481  -5.7481  -5.7345  -5.7345  -5.4192  -5.4192  -5.3595  -5.3595
     5.7278   5.7278   5.7559   5.7559   6.4743   6.4743   6.5440   6.5440
     7.2833   7.2833   7.2888   7.2888   8.1481   8.1481   8.2554   8.2554
     8.6306   8.6306   8.6635   8.6635   9.8902   9.8902   9.9178   9.9178
    11.8840  11.8840  11.9107  11.9107  12.9136  12.9136  13.0550  13.0550
    14.0487  14.0487  14.2438  14.2438  15.8189  15.8189  15.9311  15.9311
    16.7890  16.7890  16.9674  16.9674  22.9246  22.9436

     occupation numbers 
     1.0000   1.0000   1.0000   1.0000   1.0000   1.0000   1.0000   1.0000
     1.0000   1.0000   1.0000   1.0000   1.0000   1.0000   1.0000   1.0000
     1.0000   1.0000   1.0000   1.0000   1.0000   1.0000   1.0000   1.0000
     1.0000   1.0000   1.0000   1.0000   1.0000   1.0000   1.0000   1.0000
     1.0000   1.0000   1.0000   1.0000   1.0000   1.0000   1.0000   1.0000
     1.0000   1.0000   1.0000   1.0000   1.0000   1.0000   1.0000   1.0000
     1.0000   1.0000   1.0000   1.0000   1.0000   1.0000   1.0000   1.0000
    -0.0001  -0.0001  -0.0000  -0.0000  -0.0000  -0.0000  -0.0000  -0.0000
    -0.0000  -0.0000  -0.0000  -0.0000  -0.0000  -0.0000

          k = 0.0000 0.1818 0.0000 (  5375 PWs)   bands (ev):

   -79.3837 -79.3837 -79.3826 -79.3826 -46.2256 -46.2256 -46.2166 -46.2166
   -32.7637 -32.7637 -32.7549 -32.7549 -32.6221 -32.6221 -32.6098 -32.6098
    -6.9497  -6.9497  -5.9061  -5.9061  -5.1082  -5.1082  -4.9170  -4.9170
     4.5785   4.5785   4.7523   4.7523   6.0790   6.0790   6.1723   6.1723
     6.4663   6.4663   8.4883   8.4883   8.6157   8.6157   8.8015   8.8015
     9.7880   9.7880  10.1175  10.1175  10.6710  10.6710  11.4840  11.4840
    11.5118  11.5118  11.6043  11.6043  11.8659  11.8659  12.0045  12.0045
    12.4228  12.4228  14.8135  14.8135  15.1861  15.1861  17.5650  17.5650
    17.8766  17.8766  18.4541  18.4541  19.1526  19.1526

     occupation numbers 
     1.0000   1.0000   1.0000   1.0000   1.0000   1.0000   1.0000   1.0000
     1.0000   1.0000   1.0000   1.0000   1.0000   1.0000   1.0000   1.0000
     1.0000   1.0000   1.0000   1.0000   1.0000   1.0000   1.0000   1.0000
     1.0000   1.0000   1.0000   1.0000   1.0000   1.0000   1.0000   1.0000
     1.0000   1.0000   1.0000   1.0000   1.0000   1.0000   1.0000   1.0000
     1.0000   1.0000   1.0000   1.0000   1.0000   1.0000   1.0000   1.0000
     1.0000   1.0000   1.0000   1.0000   1.0000   1.0000   1.0000   1.0000
     1.0000   1.0000  -0.0000  -0.0000  -0.0000  -0.0000  -0.0000  -0.0000
    -0.0000  -0.0000  -0.0000  -0.0000  -0.0000  -0.0000

          k = 0.0000 0.1818 0.2375 (  5373 PWs)   bands (ev):

   -79.3831 -79.3831 -79.3821 -79.3821 -46.2278 -46.2278 -46.2200 -46.2200
   -32.7749 -32.7749 -32.7655 -32.7655 -32.6316 -32.6316 -32.6142 -32.6142
    -6.7146  -6.7146  -5.7717  -5.7717  -5.2143  -5.2143  -5.0510  -5.0510
     4.8827   4.8827   5.0039   5.0039   6.2410   6.2410   6.2934   6.2934
     6.8100   6.8100   7.7618   7.7618   8.4447   8.4447   8.8268   8.8268
     9.1074   9.1074   9.8730   9.8730   9.9526   9.9526  11.2970  11.2970
    11.4124  11.4124  12.1005  12.1005  12.2028  12.2028  12.5843  12.5843
    12.8958  12.8958  14.6027  14.6027  15.6116  15.6116  16.8524  16.8524
    17.2057  17.2057  18.7209  18.7209  19.3283  19.3283

     occupation numbers 
     1.0000   1.0000   1.0000   1.0000   1.0000   1.0000   1.0000   1.0000
     1.0000   1.0000   1.0000   1.0000   1.0000   1.0000   1.0000   1.0000
     1.0000   1.0000   1.0000   1.0000   1.0000   1.0000   1.0000   1.0000
     1.0000   1.0000   1.0000   1.0000   1.0000   1.0000   1.0000   1.0000
     1.0000   1.0000   1.0000   1.0000   1.0000   1.0000   1.0000   1.0000
     1.0000   1.0000   1.0000   1.0000   1.0000   1.0000   1.0000   1.0000
     1.0000   1.0000   1.0000   1.0000   1.0000   1.0000   1.0000   1.0000
     1.0000   1.0000  -0.0000  -0.0000  -0.0000  -0.0000  -0.0000  -0.0000
    -0.0000  -0.0000  -0.0000  -0.0000  -0.0000  -0.0000

          k = 0.0000 0.1818 0.4749 (  5384 PWs)   bands (ev):

   -79.3817 -79.3817 -79.3812 -79.3812 -46.2318 -46.2318 -46.2272 -46.2272
   -32.8055 -32.8055 -32.7899 -32.7899 -32.6396 -32.6396 -32.6219 -32.6219
    -6.1776  -6.1776  -5.6155  -5.6155  -5.3704  -5.3704  -5.2749  -5.2749
     5.4803   5.4803   5.6070   5.6070   6.2878   6.2878   6.6661   6.6661
     7.0103   7.0103   7.2844   7.2844   7.6747   7.6747   8.7135   8.7135
     8.9695   8.9695   9.4438   9.4438   9.6339   9.6339  10.2864  10.2864
    11.7987  11.7987  12.1061  12.1061  12.2829  12.2829  13.2188  13.2188
    13.7108  13.7108  14.2393  14.2393  15.8351  15.8351  15.9589  15.9589
    16.8306  16.8306  17.8995  17.8995  21.1024  21.1024

     occupation numbers 
     1.0000   1.0000   1.0000   1.0000   1.0000   1.0000   1.0000   1.0000
     1.0000   1.0000   1.0000   1.0000   1.0000   1.0000   1.0000   1.0000
     1.0000   1.0000   1.0000   1.0000   1.0000   1.0000   1.0000   1.0000
     1.0000   1.0000   1.0000   1.0000   1.0000   1.0000   1.0000   1.0000
     1.0000   1.0000   1.0000   1.0000   1.0000   1.0000   1.0000   1.0000
     1.0000   1.0000   1.0000   1.0000   1.0000   1.0000   1.0000   1.0000
     1.0000   1.0000   1.0000   1.0000   1.0000   1.0000   1.0000   1.0000
     1.0073   1.0073  -0.0000  -0.0000  -0.0000  -0.0000  -0.0000  -0.0000
    -0.0000  -0.0000  -0.0000  -0.0000  -0.0000  -0.0000

          k = 0.0000 0.1818-0.7124 (  5378 PWs)   bands (ev):

   -79.3809 -79.3809 -79.3809 -79.3809 -46.2328 -46.2328 -46.2318 -46.2318
   -32.8221 -32.8221 -32.8054 -32.8054 -32.6376 -32.6376 -32.6267 -32.6267
    -5.7718  -5.7718  -5.7550  -5.7550  -5.4157  -5.4157  -5.3104  -5.3104
     5.7098   5.7098   5.7809   5.7809   6.2045   6.2045   6.3182   6.3182
     7.5025   7.5025   7.5593   7.5593   8.1047   8.1047   8.3064   8.3064
     8.8902   8.8902   8.9495   8.9495   9.7406   9.7406   9.7800   9.7800
    11.8823  11.8823  11.9058  11.9058  12.5997  12.5997  12.8328  12.8328
    14.0546  14.0546  14.3589  14.3589  15.5183  15.5183  15.6052  15.6052
    17.2228  17.2228  17.4247  17.4247  22.9425  22.9426

     occupation numbers 
     1.0000   1.0000   1.0000   1.0000   1.0000   1.0000   1.0000   1.0000
     1.0000   1.0000   1.0000   1.0000   1.0000   1.0000   1.0000   1.0000
     1.0000   1.0000   1.0000   1.0000   1.0000   1.0000   1.0000   1.0000
     1.0000   1.0000   1.0000   1.0000   1.0000   1.0000   1.0000   1.0000
     1.0000   1.0000   1.0000   1.0000   1.0000   1.0000   1.0000   1.0000
     1.0000   1.0000   1.0000   1.0000   1.0000   1.0000   1.0000   1.0000
     1.0000   1.0000   1.0000   1.0000   1.0000   1.0000   1.0000   1.0000
    -0.0001  -0.0001  -0.0000  -0.0000  -0.0000  -0.0000  -0.0000  -0.0000
    -0.0000  -0.0000  -0.0000  -0.0000  -0.0000  -0.0000

          k = 0.0000 0.2727 0.0000 (  5382 PWs)   bands (ev):

   -79.3836 -79.3836 -79.3827 -79.3827 -46.2246 -46.2246 -46.2176 -46.2176
   -32.7619 -32.7619 -32.7550 -32.7550 -32.6218 -32.6218 -32.6123 -32.6123
    -6.8024  -6.8024  -5.9209  -5.9209  -5.2174  -5.2174  -5.0217  -5.0217
     4.9148   4.9148   5.0252   5.0252   6.1246   6.1246   6.1993   6.1993
     6.7248   6.7248   8.0582   8.0582   8.2354   8.2354   8.6550   8.6550
     9.4106   9.4106   9.4916   9.4916  10.6064  10.6064  11.3201  11.3201
    11.7614  11.7614  11.8684  11.8684  12.0997  12.0997  12.2674  12.2674
    12.7209  12.7209  14.5400  14.5400  15.7417  15.7417  17.4389  17.4389
    17.7061  17.7061  18.7845  18.7845  19.0602  19.0602

     occupation numbers 
     1.0000   1.0000   1.0000   1.0000   1.0000   1.0000   1.0000   1.0000
     1.0000   1.0000   1.0000   1.0000   1.0000   1.0000   1.0000   1.0000
     1.0000   1.0000   1.0000   1.0000   1.0000   1.0000   1.0000   1.0000
     1.0000   1.0000   1.0000   1.0000   1.0000   1.0000   1.0000   1.0000
     1.0000   1.0000   1.0000   1.0000   1.0000   1.0000   1.0000   1.0000
     1.0000   1.0000   1.0000   1.0000   1.0000   1.0000   1.0000   1.0000
     1.0000   1.0000   1.0000   1.0000   1.0000   1.0000   1.0000   1.0000
     1.0000   1.0000  -0.0000  -0.0000  -0.0000  -0.0000  -0.0000  -0.0000
    -0.0000  -0.0000  -0.0000  -0.0000  -0.0000  -0.0000

          k = 0.0000 0.2727 0.2375 (  5372 PWs)   bands (ev):

   -79.3830 -79.3830 -79.3822 -79.3822 -46.2270 -46.2270 -46.2208 -46.2208
   -32.7761 -32.7761 -32.7631 -32.7631 -32.6314 -32.6314 -32.6160 -32.6160
    -6.5792  -6.5792  -5.7652  -5.7652  -5.3273  -5.3273  -5.1398  -5.1398
     5.1640   5.1640   5.2747   5.2747   6.2604   6.2604   6.3066   6.3066
     7.0369   7.0369   7.7082   7.7082   8.0658   8.0658   8.3949   8.3949
     8.6578   8.6578   9.6683   9.6683  10.1772  10.1772  11.0946  11.0946
    11.6598  11.6598  12.2625  12.2625  12.3533  12.3533  12.6491  12.6491
    13.0838  13.0838  14.3663  14.3663  16.0217  16.0217  16.6529  16.6529
    17.0669  17.0669  18.5853  18.5853  19.8291  19.8291

     occupation numbers 
     1.0000   1.0000   1.0000   1.0000   1.0000   1.0000   1.0000   1.0000
     1.0000   1.0000   1.0000   1.0000   1.0000   1.0000   1.0000   1.0000
     1.0000   1.0000   1.0000   1.0000   1.0000   1.0000   1.0000   1.0000
     1.0000   1.0000   1.0000   1.0000   1.0000   1.0000   1.0000   1.0000
     1.0000   1.0000   1.0000   1.0000   1.0000   1.0000   1.0000   1.0000
     1.0000   1.0000   1.0000   1.0000   1.0000   1.0000   1.0000   1.0000
     1.0000   1.0000   1.0000   1.0000   1.0000   1.0000   1.0000   1.0000
     1.0000   1.0000  -0.0000  -0.0000  -0.0000  -0.0000  -0.0000  -0.0000
    -0.0000  -0.0000  -0.0000  -0.0000  -0.0000  -0.0000

          k = 0.0000 0.2727 0.4749 (  5370 PWs)   bands (ev):

   -79.3817 -79.3817 -79.3812 -79.3812 -46.2314 -46.2314 -46.2276 -46.2276
   -32.8083 -32.8083 -32.7870 -32.7870 -32.6400 -32.6400 -32.6219 -32.6219
    -6.0957  -6.0957  -5.6198  -5.6198  -5.4322  -5.4322  -5.3049  -5.3049
     5.6312   5.6312   5.7304   5.7304   6.1650   6.1650   6.5678   6.5678
     7.0246   7.0246   7.1648   7.1648   7.9312   7.9312   8.6364   8.6364
     9.0394   9.0394   9.2395   9.2395   9.5869   9.5869  10.6034  10.6034
    11.4961  11.4961  12.2032  12.2032  12.3334  12.3334  12.9298  12.9298
    13.7777  13.7777  14.2481  14.2481  15.5709  15.5709  15.7823  15.7823
    17.1717  17.1717  18.1566  18.1566  21.3865  21.3865

     occupation numbers 
     1.0000   1.0000   1.0000   1.0000   1.0000   1.0000   1.0000   1.0000
     1.0000   1.0000   1.0000   1.0000   1.0000   1.0000   1.0000   1.0000
     1.0000   1.0000   1.0000   1.0000   1.0000   1.0000   1.0000   1.0000
     1.0000   1.0000   1.0000   1.0000   1.0000   1.0000   1.0000   1.0000
     1.0000   1.0000   1.0000   1.0000   1.0000   1.0000   1.0000   1.0000
     1.0000   1.0000   1.0000   1.0000   1.0000   1.0000   1.0000   1.0000
     1.0000   1.0000   1.0000   1.0000   1.0000   1.0000   1.0000   1.0000
     1.0291   1.0291  -0.0000  -0.0000  -0.0000  -0.0000  -0.0000  -0.0000
    -0.0000  -0.0000  -0.0000  -0.0000  -0.0000  -0.0000

          k = 0.0000 0.2727-0.7124 (  5352 PWs)   bands (ev):

   -79.3809 -79.3809 -79.3809 -79.3809 -46.2330 -46.2330 -46.2316 -46.2316
   -32.8255 -32.8255 -32.8022 -32.8022 -32.6397 -32.6397 -32.6246 -32.6246
    -5.7954  -5.7954  -5.7836  -5.7836  -5.3991  -5.3991  -5.2638  -5.2638
     5.6327   5.6327   5.7171   5.7171   6.1004   6.1004   6.2086   6.2086
     7.6058   7.6058   7.7868   7.7868   8.1372   8.1372   8.3557   8.3557
     9.2216   9.2216   9.2660   9.2660   9.6393   9.6393   9.6482   9.6482
    11.8286  11.8286  11.8834  11.8834  12.1852  12.1852  12.5306  12.5306
    14.0960  14.0960  14.4412  14.4412  15.2788  15.2788  15.3388  15.3388
    17.6561  17.6561  17.8532  17.8532  22.9880  22.9892

     occupation numbers 
     1.0000   1.0000   1.0000   1.0000   1.0000   1.0000   1.0000   1.0000
     1.0000   1.0000   1.0000   1.0000   1.0000   1.0000   1.0000   1.0000
     1.0000   1.0000   1.0000   1.0000   1.0000   1.0000   1.0000   1.0000
     1.0000   1.0000   1.0000   1.0000   1.0000   1.0000   1.0000   1.0000
     1.0000   1.0000   1.0000   1.0000   1.0000   1.0000   1.0000   1.0000
     1.0000   1.0000   1.0000   1.0000   1.0000   1.0000   1.0000   1.0000
     1.0000   1.0000   1.0000   1.0000   1.0000   1.0000   1.0000   1.0000
    -0.0000  -0.0000  -0.0000  -0.0000  -0.0000  -0.0000  -0.0000  -0.0000
    -0.0000  -0.0000  -0.0000  -0.0000  -0.0000  -0.0000

          k = 0.0000 0.3636 0.0000 (  5366 PWs)   bands (ev):

   -79.3834 -79.3834 -79.3829 -79.3829 -46.2233 -46.2233 -46.2189 -46.2189
   -32.7598 -32.7598 -32.7554 -32.7554 -32.6210 -32.6210 -32.6150 -32.6150
    -6.6104  -6.6104  -6.0028  -6.0028  -5.2938  -5.2938  -5.1281  -5.1281
     5.2842   5.2842   5.3533   5.3533   6.1766   6.1766   6.2247   6.2247
     7.0681   7.0681   7.6475   7.6475   7.7579   7.7579   8.6211   8.6211
     8.8112   8.8112   9.1171   9.1171  10.6390  10.6390  11.1204  11.1204
    11.9585  11.9585  12.0684  12.0684  12.2895  12.2895  12.4625  12.4625
    13.0669  13.0669  14.2021  14.2021  16.3835  16.3835  17.3299  17.3299
    17.5342  17.5342  18.3160  18.3160  19.7413  19.7413

     occupation numbers 
     1.0000   1.0000   1.0000   1.0000   1.0000   1.0000   1.0000   1.0000
     1.0000   1.0000   1.0000   1.0000   1.0000   1.0000   1.0000   1.0000
     1.0000   1.0000   1.0000   1.0000   1.0000   1.0000   1.0000   1.0000
     1.0000   1.0000   1.0000   1.0000   1.0000   1.0000   1.0000   1.0000
     1.0000   1.0000   1.0000   1.0000   1.0000   1.0000   1.0000   1.0000
     1.0000   1.0000   1.0000   1.0000   1.0000   1.0000   1.0000   1.0000
     1.0000   1.0000   1.0000   1.0000   1.0000   1.0000   1.0000   1.0000
     1.0000   1.0000  -0.0000  -0.0000  -0.0000  -0.0000  -0.0000  -0.0000
    -0.0000  -0.0000  -0.0000  -0.0000  -0.0000  -0.0000

          k = 0.0000 0.3636 0.2375 (  5379 PWs)   bands (ev):

   -79.3828 -79.3828 -79.3824 -79.3824 -46.2259 -46.2259 -46.2219 -46.2219
   -32.7768 -32.7768 -32.7613 -32.7613 -32.6310 -32.6310 -32.6178 -32.6178
    -6.4021  -6.4021  -5.8257  -5.8257  -5.4063  -5.4063  -5.2314  -5.2314
     5.4952   5.4952   5.6081   5.6081   6.2476   6.2476   6.3221   6.3221
     7.1711   7.1711   7.6899   7.6899   7.8913   7.8913   7.9889   7.9889
     8.2237   8.2237   9.2754   9.2754  10.4205  10.4205  10.9392  10.9392
    11.8937  11.8937  12.2337  12.2337  12.5496  12.5496  12.7972  12.7972
    13.2812  13.2812  14.0949  14.0949  16.3157  16.3157  16.5377  16.5377
    17.0690  17.0690  18.2786  18.2786  20.4631  20.4631

     occupation numbers 
     1.0000   1.0000   1.0000   1.0000   1.0000   1.0000   1.0000   1.0000
     1.0000   1.0000   1.0000   1.0000   1.0000   1.0000   1.0000   1.0000
     1.0000   1.0000   1.0000   1.0000   1.0000   1.0000   1.0000   1.0000
     1.0000   1.0000   1.0000   1.0000   1.0000   1.0000   1.0000   1.0000
     1.0000   1.0000   1.0000   1.0000   1.0000   1.0000   1.0000   1.0000
     1.0000   1.0000   1.0000   1.0000   1.0000   1.0000   1.0000   1.0000
     1.0000   1.0000   1.0000   1.0000   1.0000   1.0000   1.0000   1.0000
     1.0000   1.0000  -0.0000  -0.0000  -0.0000  -0.0000  -0.0000  -0.0000
    -0.0000  -0.0000  -0.0000  -0.0000  -0.0000  -0.0000

          k = 0.0000 0.3636 0.4749 (  5368 PWs)   bands (ev):

   -79.3816 -79.3816 -79.3813 -79.3813 -46.2309 -46.2309 -46.2281 -46.2281
   -32.8103 -32.8103 -32.7848 -32.7848 -32.6402 -32.6402 -32.6219 -32.6219
    -5.9907  -5.9907  -5.6607  -5.6607  -5.4793  -5.4793  -5.3349  -5.3349
     5.7838   5.7838   5.8794   5.8794   6.1040   6.1040   6.4190   6.4190
     6.9138   6.9138   7.2219   7.2219   8.0852   8.0852   8.6201   8.6201
     8.8639   8.8639   9.1437   9.1437   9.7754   9.7754  10.7684  10.7684
    11.3033  11.3033  12.2006  12.2006  12.3443  12.3443  12.7300  12.7300
    13.8283  13.8283  14.2567  14.2567  15.3865  15.3865  15.5902  15.5902
    17.5553  17.5553  18.2507  18.2507  21.7843  21.7843

     occupation numbers 
     1.0000   1.0000   1.0000   1.0000   1.0000   1.0000   1.0000   1.0000
     1.0000   1.0000   1.0000   1.0000   1.0000   1.0000   1.0000   1.0000
     1.0000   1.0000   1.0000   1.0000   1.0000   1.0000   1.0000   1.0000
     1.0000   1.0000   1.0000   1.0000   1.0000   1.0000   1.0000   1.0000
     1.0000   1.0000   1.0000   1.0000   1.0000   1.0000   1.0000   1.0000
     1.0000   1.0000   1.0000   1.0000   1.0000   1.0000   1.0000   1.0000
     1.0000   1.0000   1.0000   1.0000   1.0000   1.0000   1.0000   1.0000
     0.7423   0.7423  -0.0000  -0.0000  -0.0000  -0.0000  -0.0000  -0.0000
    -0.0000  -0.0000  -0.0000  -0.0000  -0.0000  -0.0000

          k = 0.0000 0.3636-0.7124 (  5360 PWs)   bands (ev):

   -79.3809 -79.3809 -79.3809 -79.3809 -46.2332 -46.2332 -46.2314 -46.2314
   -32.8280 -32.8280 -32.7999 -32.7999 -32.6412 -32.6412 -32.6230 -32.6230
    -5.8135  -5.8135  -5.8088  -5.8088  -5.3813  -5.3813  -5.2281  -5.2281
     5.5241   5.5241   5.5827   5.5827   6.1493   6.1493   6.1991   6.1991
     7.5858   7.5858   7.9658   7.9658   8.2809   8.2809   8.4339   8.4339
     9.1507   9.1507   9.1674   9.1674   9.9635   9.9635  10.0033  10.0033
    11.5772  11.5772  11.6787  11.6787  11.9053  11.9053  12.3144  12.3144
    14.1360  14.1360  14.4870  14.4870  15.1139  15.1139  15.1611  15.1611
    18.0055  18.0055  18.1881  18.1881  23.0569  23.0578

     occupation numbers 
     1.0000   1.0000   1.0000   1.0000   1.0000   1.0000   1.0000   1.0000
     1.0000   1.0000   1.0000   1.0000   1.0000   1.0000   1.0000   1.0000
     1.0000   1.0000   1.0000   1.0000   1.0000   1.0000   1.0000   1.0000
     1.0000   1.0000   1.0000   1.0000   1.0000   1.0000   1.0000   1.0000
     1.0000   1.0000   1.0000   1.0000   1.0000   1.0000   1.0000   1.0000
     1.0000   1.0000   1.0000   1.0000   1.0000   1.0000   1.0000   1.0000
     1.0000   1.0000   1.0000   1.0000   1.0000   1.0000   1.0000   1.0000
    -0.0000  -0.0000  -0.0000  -0.0000  -0.0000  -0.0000  -0.0000  -0.0000
    -0.0000  -0.0000  -0.0000  -0.0000  -0.0000  -0.0000

          k = 0.0000 0.4545 0.0000 (  5374 PWs)   bands (ev):

   -79.3833 -79.3833 -79.3831 -79.3831 -46.2219 -46.2219 -46.2203 -46.2203
   -32.7579 -32.7579 -32.7564 -32.7564 -32.6196 -32.6196 -32.6175 -32.6175
    -6.3909  -6.3909  -6.1729  -6.1729  -5.2898  -5.2898  -5.2239  -5.2239
     5.5712   5.5712   5.6047   5.6047   6.2264   6.2264   6.2414   6.2414
     7.2463   7.2463   7.3653   7.3653   7.6530   7.6530   8.1725   8.1725
     8.7022   8.7022   8.8641   8.8641  10.7508  10.7508  10.9200  10.9200
    12.0881  12.0881  12.1364  12.1364  12.4511  12.4511  12.5260  12.5260
    13.4449  13.4449  13.8299  13.8299  17.0148  17.0148  17.2719  17.2719
    17.4339  17.4339  17.7648  17.7648  20.4399  20.4399

     occupation numbers 
     1.0000   1.0000   1.0000   1.0000   1.0000   1.0000   1.0000   1.0000
     1.0000   1.0000   1.0000   1.0000   1.0000   1.0000   1.0000   1.0000
     1.0000   1.0000   1.0000   1.0000   1.0000   1.0000   1.0000   1.0000
     1.0000   1.0000   1.0000   1.0000   1.0000   1.0000   1.0000   1.0000
     1.0000   1.0000   1.0000   1.0000   1.0000   1.0000   1.0000   1.0000
     1.0000   1.0000   1.0000   1.0000   1.0000   1.0000   1.0000   1.0000
     1.0000   1.0000   1.0000   1.0000   1.0000   1.0000   1.0000   1.0000
     1.0000   1.0000   0.7244   0.7244  -0.0000  -0.0000  -0.0000  -0.0000
    -0.0000  -0.0000  -0.0000  -0.0000  -0.0000  -0.0000

          k = 0.0000 0.4545 0.2375 (  5364 PWs)   bands (ev):

   -79.3827 -79.3827 -79.3825 -79.3825 -46.2247 -46.2247 -46.2231 -46.2231
   -32.7771 -32.7771 -32.7603 -32.7603 -32.6306 -32.6306 -32.6189 -32.6189
    -6.1983  -6.1983  -5.9877  -5.9877  -5.3956  -5.3956  -5.3156  -5.3156
     5.7937   5.7937   5.9188   5.9188   6.1859   6.1859   6.2543   6.2543
     7.2536   7.2536   7.4274   7.4274   7.7680   7.7680   7.8427   7.8427
     8.3166   8.3166   8.7952   8.7952  10.6323  10.6323  10.8003  10.8003
    12.0514  12.0514  12.1666  12.1666  12.6984  12.6984  12.8923  12.8923
    13.4463  13.4463  13.8600  13.8600  16.3246  16.3246  16.5091  16.5091
    17.4109  17.4109  17.8677  17.8677  21.1209  21.1209

     occupation numbers 
     1.0000   1.0000   1.0000   1.0000   1.0000   1.0000   1.0000   1.0000
     1.0000   1.0000   1.0000   1.0000   1.0000   1.0000   1.0000   1.0000
     1.0000   1.0000   1.0000   1.0000   1.0000   1.0000   1.0000   1.0000
     1.0000   1.0000   1.0000   1.0000   1.0000   1.0000   1.0000   1.0000
     1.0000   1.0000   1.0000   1.0000   1.0000   1.0000   1.0000   1.0000
     1.0000   1.0000   1.0000   1.0000   1.0000   1.0000   1.0000   1.0000
     1.0000   1.0000   1.0000   1.0000   1.0000   1.0000   1.0000   1.0000
     1.0000   1.0000   0.3620   0.3620  -0.0000  -0.0000  -0.0000  -0.0000
    -0.0000  -0.0000  -0.0000  -0.0000  -0.0000  -0.0000

          k = 0.0000 0.4545 0.4749 (  5369 PWs)   bands (ev):

   -79.3815 -79.3815 -79.3814 -79.3814 -46.2304 -46.2304 -46.2286 -46.2286
   -32.8114 -32.8114 -32.7837 -32.7837 -32.6404 -32.6404 -32.6220 -32.6220
    -5.8724  -5.8724  -5.7546  -5.7546  -5.4912  -5.4912  -5.3552  -5.3552
     5.9092   5.9092   5.9599   5.9599   6.1306   6.1306   6.2540   6.2540
     6.9099   6.9099   7.1856   7.1856   8.2225   8.2225   8.4585   8.4585
     8.8803   8.8803   9.0563   9.0563  10.0947  10.0947  10.4751  10.4751
    11.5655  11.5655  11.9243  11.9243  12.3829  12.3829  12.6850  12.6850
    13.8534  13.8534  14.2667  14.2667  15.3324  15.3324  15.4272  15.4272
    17.8924  17.8924  18.1716  18.1716  22.2641  22.2641

     occupation numbers 
     1.0000   1.0000   1.0000   1.0000   1.0000   1.0000   1.0000   1.0000
     1.0000   1.0000   1.0000   1.0000   1.0000   1.0000   1.0000   1.0000
     1.0000   1.0000   1.0000   1.0000   1.0000   1.0000   1.0000   1.0000
     1.0000   1.0000   1.0000   1.0000   1.0000   1.0000   1.0000   1.0000
     1.0000   1.0000   1.0000   1.0000   1.0000   1.0000   1.0000   1.0000
     1.0000   1.0000   1.0000   1.0000   1.0000   1.0000   1.0000   1.0000
     1.0000   1.0000   1.0000   1.0000   1.0000   1.0000   1.0000   1.0000
     0.4416   0.4416  -0.0000  -0.0000  -0.0000  -0.0000  -0.0000  -0.0000
    -0.0000  -0.0000  -0.0000  -0.0000  -0.0000  -0.0000

          k = 0.0000 0.4545-0.7124 (  5352 PWs)   bands (ev):

   -79.3809 -79.3809 -79.3809 -79.3809 -46.2333 -46.2333 -46.2313 -46.2313
   -32.8293 -32.8293 -32.7987 -32.7987 -32.6420 -32.6420 -32.6222 -32.6222
    -5.8232  -5.8232  -5.8230  -5.8230  -5.3705  -5.3705  -5.2089  -5.2089
     5.4537   5.4537   5.4984   5.4984   6.2056   6.2056   6.2136   6.2136
     7.5411   7.5411   8.0627   8.0627   8.4479   8.4479   8.5793   8.5793
     8.9057   8.9057   8.9740   8.9740  10.4689  10.4689  10.4926  10.4926
    11.1731  11.1731  11.1791  11.1791  11.9018  11.9018  12.2375  12.2375
    14.1588  14.1588  14.5037  14.5037  15.0298  15.0298  15.0756  15.0756
    18.2024  18.2024  18.3734  18.3734  23.1240  23.1258

     occupation numbers 
     1.0000   1.0000   1.0000   1.0000   1.0000   1.0000   1.0000   1.0000
     1.0000   1.0000   1.0000   1.0000   1.0000   1.0000   1.0000   1.0000
     1.0000   1.0000   1.0000   1.0000   1.0000   1.0000   1.0000   1.0000
     1.0000   1.0000   1.0000   1.0000   1.0000   1.0000   1.0000   1.0000
     1.0000   1.0000   1.0000   1.0000   1.0000   1.0000   1.0000   1.0000
     1.0000   1.0000   1.0000   1.0000   1.0000   1.0000   1.0000   1.0000
     1.0000   1.0000   1.0000   1.0000   1.0000   1.0000   1.0000   1.0000
    -0.0000  -0.0000  -0.0000  -0.0000  -0.0000  -0.0000  -0.0000  -0.0000
    -0.0000  -0.0000  -0.0000  -0.0000  -0.0000  -0.0000

          k = 0.0909 0.0909 0.0000 (  5365 PWs)   bands (ev):

   -79.3838 -79.3838 -79.3826 -79.3826 -46.2260 -46.2260 -46.2161 -46.2161
   -32.7646 -32.7646 -32.7549 -32.7549 -32.6221 -32.6221 -32.6087 -32.6087
    -7.0122  -7.0122  -5.9094  -5.9094  -5.0625  -5.0625  -4.8539  -4.8539
     4.3595   4.3595   4.7003   4.7003   6.0521   6.0521   6.1626   6.1626
     6.3619   6.3619   8.5720   8.5720   8.7365   8.7365   9.0785   9.0785
    10.0496  10.0496  10.5880  10.5880  10.6926  10.6926  11.1387  11.1387
    11.4939  11.4939  11.5593  11.5593  11.7447  11.7447  11.8580  11.8580
    12.2885  12.2885  14.8879  14.8879  14.9538  14.9538  17.6153  17.6153
    17.9749  17.9749  18.1966  18.1966  19.2966  19.2966

     occupation numbers 
     1.0000   1.0000   1.0000   1.0000   1.0000   1.0000   1.0000   1.0000
     1.0000   1.0000   1.0000   1.0000   1.0000   1.0000   1.0000   1.0000
     1.0000   1.0000   1.0000   1.0000   1.0000   1.0000   1.0000   1.0000
     1.0000   1.0000   1.0000   1.0000   1.0000   1.0000   1.0000   1.0000
     1.0000   1.0000   1.0000   1.0000   1.0000   1.0000   1.0000   1.0000
     1.0000   1.0000   1.0000   1.0000   1.0000   1.0000   1.0000   1.0000
     1.0000   1.0000   1.0000   1.0000   1.0000   1.0000   1.0000   1.0000
     1.0000   1.0000  -0.0000  -0.0000  -0.0000  -0.0000  -0.0000  -0.0000
    -0.0000  -0.0000  -0.0000  -0.0000  -0.0000  -0.0000

          k = 0.0909 0.0909 0.2375 (  5377 PWs)   bands (ev):

   -79.3831 -79.3831 -79.3821 -79.3821 -46.2282 -46.2282 -46.2196 -46.2196
   -32.7740 -32.7740 -32.7670 -32.7670 -32.6317 -32.6317 -32.6134 -32.6134
    -6.7720  -6.7720  -5.7819  -5.7819  -5.1697  -5.1697  -4.9966  -4.9966
     4.6846   4.6846   4.9602   4.9602   6.2033   6.2033   6.3257   6.3257
     6.6802   6.6802   7.8059   7.8059   8.7382   8.7382   8.9527   8.9527
     9.3089   9.3089   9.8428   9.8428  10.0209  10.0209  11.2390  11.2390
    11.4597  11.4597  11.8505  11.8505  12.1551  12.1551  12.5969  12.5969
    12.8360  12.8360  14.7125  14.7125  15.3908  15.3908  16.9361  16.9361
    17.3302  17.3302  18.6540  18.6540  19.1937  19.1937

     occupation numbers 
     1.0000   1.0000   1.0000   1.0000   1.0000   1.0000   1.0000   1.0000
     1.0000   1.0000   1.0000   1.0000   1.0000   1.0000   1.0000   1.0000
     1.0000   1.0000   1.0000   1.0000   1.0000   1.0000   1.0000   1.0000
     1.0000   1.0000   1.0000   1.0000   1.0000   1.0000   1.0000   1.0000
     1.0000   1.0000   1.0000   1.0000   1.0000   1.0000   1.0000   1.0000
     1.0000   1.0000   1.0000   1.0000   1.0000   1.0000   1.0000   1.0000
     1.0000   1.0000   1.0000   1.0000   1.0000   1.0000   1.0000   1.0000
     1.0000   1.0000  -0.0000  -0.0000  -0.0000  -0.0000  -0.0000  -0.0000
    -0.0000  -0.0000  -0.0000  -0.0000  -0.0000  -0.0000

          k = 0.0909 0.0909 0.4749 (  5369 PWs)   bands (ev):

   -79.3817 -79.3817 -79.3811 -79.3811 -46.2320 -46.2320 -46.2270 -46.2270
   -32.8035 -32.8035 -32.7920 -32.7920 -32.6394 -32.6394 -32.6219 -32.6219
    -6.2123  -6.2123  -5.6175  -5.6175  -5.3423  -5.3423  -5.2585  -5.2585
     5.3845   5.3845   5.5789   5.5789   6.3954   6.3954   6.6316   6.6316
     7.0210   7.0210   7.4091   7.4091   7.5224   7.5224   8.7103   8.7103
     8.8920   8.8920   9.5181   9.5181   9.7883   9.7883  10.1328  10.1328
    11.8428  11.8428  12.1237  12.1237  12.2558  12.2558  13.4393  13.4393
    13.5979  13.5979  14.2436  14.2436  15.8564  15.8564  16.2419  16.2419
    16.6234  16.6234  17.6975  17.6975  20.9925  20.9925

     occupation numbers 
     1.0000   1.0000   1.0000   1.0000   1.0000   1.0000   1.0000   1.0000
     1.0000   1.0000   1.0000   1.0000   1.0000   1.0000   1.0000   1.0000
     1.0000   1.0000   1.0000   1.0000   1.0000   1.0000   1.0000   1.0000
     1.0000   1.0000   1.0000   1.0000   1.0000   1.0000   1.0000   1.0000
     1.0000   1.0000   1.0000   1.0000   1.0000   1.0000   1.0000   1.0000
     1.0000   1.0000   1.0000   1.0000   1.0000   1.0000   1.0000   1.0000
     1.0000   1.0000   1.0000   1.0000   1.0000   1.0000   1.0000   1.0000
     1.0000   1.0000  -0.0000  -0.0000  -0.0000  -0.0000  -0.0000  -0.0000
    -0.0000  -0.0000  -0.0000  -0.0000  -0.0000  -0.0000

          k = 0.0909 0.0909-0.7124 (  5374 PWs)   bands (ev):

   -79.3809 -79.3809 -79.3809 -79.3809 -46.2327 -46.2327 -46.2319 -46.2319
   -32.8196 -32.8196 -32.8078 -32.8078 -32.6360 -32.6360 -32.6283 -32.6283
    -5.7721  -5.7721  -5.7202  -5.7202  -5.4303  -5.4303  -5.3357  -5.3357
     5.6974   5.6974   5.8018   5.8018   6.2839   6.2839   6.6528   6.6528
     6.9488   6.9488   7.7251   7.7251   8.1291   8.1291   8.2713   8.2713
     8.6247   8.6247   8.8248   8.8248   9.7397   9.7397   9.9653   9.9653
    11.8807  11.8807  11.9146  11.9146  12.7557  12.7557  13.0801  13.0801
    13.9442  13.9442  14.3473  14.3473  15.5297  15.5297  16.1170  16.1170
    16.6664  16.6664  17.2772  17.2772  22.9158  22.9218

     occupation numbers 
     1.0000   1.0000   1.0000   1.0000   1.0000   1.0000   1.0000   1.0000
     1.0000   1.0000   1.0000   1.0000   1.0000   1.0000   1.0000   1.0000
     1.0000   1.0000   1.0000   1.0000   1.0000   1.0000   1.0000   1.0000
     1.0000   1.0000   1.0000   1.0000   1.0000   1.0000   1.0000   1.0000
     1.0000   1.0000   1.0000   1.0000   1.0000   1.0000   1.0000   1.0000
     1.0000   1.0000   1.0000   1.0000   1.0000   1.0000   1.0000   1.0000
     1.0000   1.0000   1.0000   1.0000   1.0000   1.0000   1.0000   1.0000
    -0.0316  -0.0316  -0.0000  -0.0000  -0.0000  -0.0000  -0.0000  -0.0000
    -0.0000  -0.0000  -0.0000  -0.0000  -0.0000  -0.0000

          k = 0.0909 0.1818 0.0000 (  5364 PWs)   bands (ev):

   -79.3837 -79.3837 -79.3826 -79.3826 -46.2254 -46.2254 -46.2168 -46.2168
   -32.7635 -32.7635 -32.7549 -32.7549 -32.6220 -32.6220 -32.6102 -32.6102
    -6.9249  -6.9249  -5.9061  -5.9061  -5.1496  -5.1496  -4.9119  -4.9119
     4.4542   4.4542   4.9850   4.9850   6.0702   6.0702   6.1890   6.1890
     6.5158   6.5158   8.1408   8.1408   8.6560   8.6560   8.9261   8.9261
     9.8005   9.8005  10.1738  10.1738  10.5187  10.5187  11.3032  11.3032
    11.4542  11.4542  11.6639  11.6639  11.9495  11.9495  12.1126  12.1126
    12.5244  12.5244  14.7835  14.7835  15.2074  15.2074  17.5060  17.5060
    17.8942  17.8942  18.6164  18.6164  19.0714  19.0714

     occupation numbers 
     1.0000   1.0000   1.0000   1.0000   1.0000   1.0000   1.0000   1.0000
     1.0000   1.0000   1.0000   1.0000   1.0000   1.0000   1.0000   1.0000
     1.0000   1.0000   1.0000   1.0000   1.0000   1.0000   1.0000   1.0000
     1.0000   1.0000   1.0000   1.0000   1.0000   1.0000   1.0000   1.0000
     1.0000   1.0000   1.0000   1.0000   1.0000   1.0000   1.0000   1.0000
     1.0000   1.0000   1.0000   1.0000   1.0000   1.0000   1.0000   1.0000
     1.0000   1.0000   1.0000   1.0000   1.0000   1.0000   1.0000   1.0000
     1.0000   1.0000  -0.0000  -0.0000  -0.0000  -0.0000  -0.0000  -0.0000
    -0.0000  -0.0000  -0.0000  -0.0000  -0.0000  -0.0000

          k = 0.0909 0.1818 0.2375 (  5368 PWs)   bands (ev):

   -79.3831 -79.3831 -79.3821 -79.3821 -46.2276 -46.2276 -46.2201 -46.2201
   -32.7751 -32.7751 -32.7652 -32.7652 -32.6315 -32.6315 -32.6146 -32.6146
    -6.6917  -6.6917  -5.7675  -5.7675  -5.2548  -5.2548  -5.0460  -5.0460
     4.7554   4.7554   5.2281   5.2281   6.1814   6.1814   6.3523   6.3523
     6.8628   6.8628   7.6798   7.6798   8.4568   8.4568   8.5752   8.5752
     9.2261   9.2261   9.7832   9.7832  10.1130  10.1130  11.2364  11.2364
    11.4156  11.4156  11.9372  11.9372  12.3105  12.3105  12.6234  12.6234
    12.9793  12.9793  14.5668  14.5668  15.6479  15.6479  16.7459  16.7459
    17.2596  17.2596  18.7005  18.7005  19.4376  19.4376

     occupation numbers 
     1.0000   1.0000   1.0000   1.0000   1.0000   1.0000   1.0000   1.0000
     1.0000   1.0000   1.0000   1.0000   1.0000   1.0000   1.0000   1.0000
     1.0000   1.0000   1.0000   1.0000   1.0000   1.0000   1.0000   1.0000
     1.0000   1.0000   1.0000   1.0000   1.0000   1.0000   1.0000   1.0000
     1.0000   1.0000   1.0000   1.0000   1.0000   1.0000   1.0000   1.0000
     1.0000   1.0000   1.0000   1.0000   1.0000   1.0000   1.0000   1.0000
     1.0000   1.0000   1.0000   1.0000   1.0000   1.0000   1.0000   1.0000
     1.0000   1.0000  -0.0000  -0.0000  -0.0000  -0.0000  -0.0000  -0.0000
    -0.0000  -0.0000  -0.0000  -0.0000  -0.0000  -0.0000

          k = 0.0909 0.1818 0.4749 (  5370 PWs)   bands (ev):

   -79.3817 -79.3817 -79.3812 -79.3812 -46.2317 -46.2317 -46.2273 -46.2273
   -32.8059 -32.8059 -32.7895 -32.7895 -32.6396 -32.6396 -32.6220 -32.6220
    -6.1623  -6.1623  -5.6150  -5.6150  -5.3849  -5.3849  -5.2775  -5.2775
     5.4348   5.4348   5.7002   5.7002   6.2644   6.2644   6.5598   6.5598
     7.1364   7.1364   7.2327   7.2327   7.7215   7.7215   8.6875   8.6875
     8.9114   8.9114   9.4370   9.4370   9.6870   9.6870  10.3595  10.3595
    11.7422  11.7422  12.0697  12.0697  12.3292  12.3292  13.2381  13.2381
    13.6222  13.6222  14.2711  14.2711  15.6427  15.6427  16.1585  16.1585
    16.7844  16.7844  17.9554  17.9554  21.1585  21.1585

     occupation numbers 
     1.0000   1.0000   1.0000   1.0000   1.0000   1.0000   1.0000   1.0000
     1.0000   1.0000   1.0000   1.0000   1.0000   1.0000   1.0000   1.0000
     1.0000   1.0000   1.0000   1.0000   1.0000   1.0000   1.0000   1.0000
     1.0000   1.0000   1.0000   1.0000   1.0000   1.0000   1.0000   1.0000
     1.0000   1.0000   1.0000   1.0000   1.0000   1.0000   1.0000   1.0000
     1.0000   1.0000   1.0000   1.0000   1.0000   1.0000   1.0000   1.0000
     1.0000   1.0000   1.0000   1.0000   1.0000   1.0000   1.0000   1.0000
     1.0000   1.0000  -0.0000  -0.0000  -0.0000  -0.0000  -0.0000  -0.0000
    -0.0000  -0.0000  -0.0000  -0.0000  -0.0000  -0.0000

          k = 0.0909 0.1818-0.7124 (  5362 PWs)   bands (ev):

   -79.3809 -79.3809 -79.3809 -79.3809 -46.2329 -46.2329 -46.2317 -46.2317
   -32.8226 -32.8226 -32.8049 -32.8049 -32.6379 -32.6379 -32.6264 -32.6264
    -5.8000  -5.8000  -5.7222  -5.7222  -5.4327  -5.4327  -5.2955  -5.2955
     5.6495   5.6495   5.8560   5.8560   6.1173   6.1173   6.4180   6.4180
     7.0436   7.0436   8.0111   8.0111   8.1511   8.1511   8.3146   8.3146
     8.8157   8.8157   9.1181   9.1181   9.5013   9.5013   9.9331   9.9331
    11.8790  11.8790  11.9006  11.9006  12.4734  12.4734  12.9298  12.9298
    13.8948  13.8948  14.4514  14.4514  15.2630  15.2630  15.9082  15.9082
    16.9856  16.9856  17.6646  17.6646  22.9228  22.9261

     occupation numbers 
[...]
     1.0000   1.0000   1.0000   1.0000   1.0000   1.0000   1.0000   1.0000
    -0.0294  -0.0294  -0.0000  -0.0000  -0.0000  -0.0000  -0.0000  -0.0000
    -0.0000  -0.0000  -0.0000  -0.0000  -0.0000  -0.0000

          k = 0.3636 0.4545 0.2375 (  5388 PWs)   bands (ev):

   -79.3826 -79.3826 -79.3826 -79.3826 -46.2243 -46.2243 -46.2236 -46.2236
   -32.7739 -32.7739 -32.7667 -32.7667 -32.6260 -32.6260 -32.6210 -32.6210
    -6.2378  -6.2378  -6.1585  -6.1585  -5.2202  -5.2202  -5.1619  -5.1619
     4.7497   4.7497   4.9327   4.9327   6.0465   6.0465   6.0871   6.0871
     8.1508   8.1508   8.2872   8.2872   8.5772   8.5772   8.8215   8.8215
     9.1905   9.1905   9.5390   9.5390   9.6511   9.6511   9.7516   9.7516
    11.7711  11.7711  11.9607  11.9607  12.3368  12.3368  12.4268  12.4268
    13.6872  13.6872  13.8169  13.8169  16.4954  16.4954  16.7189  16.7189
    17.2558  17.2558  17.4030  17.4030  22.0865  22.0867

     occupation numbers 
     1.0000   1.0000   1.0000   1.0000   1.0000   1.0000   1.0000   1.0000
     1.0000   1.0000   1.0000   1.0000   1.0000   1.0000   1.0000   1.0000
     1.0000   1.0000   1.0000   1.0000   1.0000   1.0000   1.0000   1.0000
     1.0000   1.0000   1.0000   1.0000   1.0000   1.0000   1.0000   1.0000
     1.0000   1.0000   1.0000   1.0000   1.0000   1.0000   1.0000   1.0000
     1.0000   1.0000   1.0000   1.0000   1.0000   1.0000   1.0000   1.0000
     1.0000   1.0000   1.0000   1.0000   1.0000   1.0000   1.0000   1.0000
     1.0020   1.0020   0.8521   0.8521  -0.0000  -0.0000  -0.0000  -0.0000
    -0.0000  -0.0000  -0.0000  -0.0000  -0.0000  -0.0000

          k = 0.3636 0.4545 0.4749 (  5355 PWs)   bands (ev):

   -79.3815 -79.3815 -79.3814 -79.3814 -46.2299 -46.2299 -46.2291 -46.2291
   -32.8040 -32.8040 -32.7919 -32.7919 -32.6351 -32.6351 -32.6271 -32.6271
    -5.8401  -5.8401  -5.7945  -5.7945  -5.4258  -5.4258  -5.3623  -5.3623
     5.3869   5.3869   5.4797   5.4797   6.1342   6.1342   6.2223   6.2223
     7.0785   7.0785   7.2310   7.2310   8.5522   8.5522   8.6481   8.6481
     9.2384   9.2384   9.3828   9.3828  10.1059  10.1059  10.3545  10.3545
    11.9837  11.9837  12.0689  12.0689  12.4525  12.4525  12.7982  12.7982
    13.3476  13.3476  13.7109  13.7109  15.9688  15.9688  16.2292  16.2292
    17.1842  17.1842  17.4435  17.4435  22.6503  22.6511

     occupation numbers 
     1.0000   1.0000   1.0000   1.0000   1.0000   1.0000   1.0000   1.0000
     1.0000   1.0000   1.0000   1.0000   1.0000   1.0000   1.0000   1.0000
     1.0000   1.0000   1.0000   1.0000   1.0000   1.0000   1.0000   1.0000
     1.0000   1.0000   1.0000   1.0000   1.0000   1.0000   1.0000   1.0000
     1.0000   1.0000   1.0000   1.0000   1.0000   1.0000   1.0000   1.0000
     1.0000   1.0000   1.0000   1.0000   1.0000   1.0000   1.0000   1.0000
     1.0000   1.0000   1.0000   1.0000   1.0000   1.0000   1.0000   1.0000
     1.0000   1.0000   1.0073   1.0073  -0.0000  -0.0000  -0.0000  -0.0000
    -0.0000  -0.0000  -0.0000  -0.0000  -0.0000  -0.0000

          k = 0.3636 0.4545-0.7124 (  5372 PWs)   bands (ev):

   -79.3809 -79.3809 -79.3809 -79.3809 -46.2328 -46.2328 -46.2319 -46.2319
   -32.8206 -32.8206 -32.8072 -32.8072 -32.6369 -32.6369 -32.6283 -32.6283
    -5.7134  -5.7134  -5.6455  -5.6455  -5.4902  -5.4902  -5.3643  -5.3643
     5.6533   5.6533   5.8037   5.8037   5.9908   5.9908   6.2559   6.2559
     6.7584   6.7584   7.1190   7.1190   8.2064   8.2064   8.3135   8.3135
     9.5608   9.5608   9.6476   9.6476  10.5060  10.5060  10.7007  10.7007
    11.8182  11.8182  11.9275  11.9275  12.1720  12.1720  12.5786  12.5786
    13.4959  13.4959  13.8990  13.8990  15.6037  15.6037  15.9135  15.9135
    17.2163  17.2163  17.5451  17.5451  23.0920  23.0921

     occupation numbers 
     1.0000   1.0000   1.0000   1.0000   1.0000   1.0000   1.0000   1.0000
     1.0000   1.0000   1.0000   1.0000   1.0000   1.0000   1.0000   1.0000
     1.0000   1.0000   1.0000   1.0000   1.0000   1.0000   1.0000   1.0000
     1.0000   1.0000   1.0000   1.0000   1.0000   1.0000   1.0000   1.0000
     1.0000   1.0000   1.0000   1.0000   1.0000   1.0000   1.0000   1.0000
     1.0000   1.0000   1.0000   1.0000   1.0000   1.0000   1.0000   1.0000
     1.0000   1.0000   1.0000   1.0000   1.0000   1.0000   1.0000   1.0000
     1.0000   1.0000   0.0273   0.0273  -0.0000  -0.0000  -0.0000  -0.0000
    -0.0000  -0.0000  -0.0000  -0.0000  -0.0000  -0.0000

          k = 0.4545 0.4545 0.0000 (  5404 PWs)   bands (ev):

   -79.3832 -79.3832 -79.3832 -79.3832 -46.2213 -46.2213 -46.2210 -46.2210
   -32.7598 -32.7598 -32.7595 -32.7595 -32.6166 -32.6166 -32.6162 -32.6162
    -6.4208  -6.4208  -6.3920  -6.3920  -5.0543  -5.0543  -5.0320  -5.0320
     4.4003   4.4003   4.4677   4.4677   6.0136   6.0136   6.0248   6.0248
     8.4228   8.4228   8.7193   8.7193   8.7635   8.7635   9.0639   9.0639
     9.5237   9.5237   9.5975   9.5975  10.1612  10.1612  10.3854  10.3854
    11.1324  11.1324  11.2790  11.2790  11.7559  11.7559  11.8255  11.8255
    14.0172  14.0172  14.0666  14.0666  16.2156  16.2156  16.3333  16.3333
    17.8868  17.8868  17.9292  17.9292  22.1482  22.1482

     occupation numbers 
     1.0000   1.0000   1.0000   1.0000   1.0000   1.0000   1.0000   1.0000
     1.0000   1.0000   1.0000   1.0000   1.0000   1.0000   1.0000   1.0000
     1.0000   1.0000   1.0000   1.0000   1.0000   1.0000   1.0000   1.0000
     1.0000   1.0000   1.0000   1.0000   1.0000   1.0000   1.0000   1.0000
     1.0000   1.0000   1.0000   1.0000   1.0000   1.0000   1.0000   1.0000
     1.0000   1.0000   1.0000   1.0000   1.0000   1.0000   1.0000   1.0000
     1.0000   1.0000   1.0000   1.0000   1.0000   1.0000   1.0000   1.0000
    -0.0013  -0.0013  -0.0000  -0.0000  -0.0000  -0.0000  -0.0000  -0.0000
    -0.0000  -0.0000  -0.0000  -0.0000  -0.0000  -0.0000

          k = 0.4545 0.4545 0.2375 (  5387 PWs)   bands (ev):

   -79.3826 -79.3826 -79.3826 -79.3826 -46.2241 -46.2241 -46.2238 -46.2238
   -32.7722 -32.7722 -32.7689 -32.7689 -32.6244 -32.6244 -32.6222 -32.6222
    -6.2277  -6.2277  -6.2006  -6.2006  -5.1747  -5.1747  -5.1529  -5.1529
     4.6869   4.6869   4.7509   4.7509   6.0251   6.0251   6.0398   6.0398
     8.4157   8.4157   8.5235   8.5235   8.7166   8.7166   8.9359   8.9359
     9.2237   9.2237   9.3523   9.3523   9.6223   9.6223   9.7715   9.7715
    11.6891  11.6891  11.7936  11.7936  12.3093  12.3093  12.3545  12.3545
    13.7404  13.7404  13.7892  13.7892  16.5160  16.5160  16.6128  16.6128
    17.3249  17.3249  17.3834  17.3834  22.4593  22.4593

     occupation numbers 
     1.0000   1.0000   1.0000   1.0000   1.0000   1.0000   1.0000   1.0000
     1.0000   1.0000   1.0000   1.0000   1.0000   1.0000   1.0000   1.0000
     1.0000   1.0000   1.0000   1.0000   1.0000   1.0000   1.0000   1.0000
     1.0000   1.0000   1.0000   1.0000   1.0000   1.0000   1.0000   1.0000
     1.0000   1.0000   1.0000   1.0000   1.0000   1.0000   1.0000   1.0000
     1.0000   1.0000   1.0000   1.0000   1.0000   1.0000   1.0000   1.0000
     1.0000   1.0000   1.0000   1.0000   1.0000   1.0000   1.0000   1.0000
     1.0234   1.0234   1.0068   1.0068  -0.0000  -0.0000  -0.0000  -0.0000
    -0.0000  -0.0000  -0.0000  -0.0000  -0.0000  -0.0000

          k = 0.4545 0.4545 0.4749 (  5355 PWs)   bands (ev):

   -79.3814 -79.3814 -79.3814 -79.3814 -46.2297 -46.2297 -46.2294 -46.2294
   -32.8008 -32.8008 -32.7953 -32.7953 -32.6330 -32.6330 -32.6293 -32.6293
    -5.8258  -5.8258  -5.8104  -5.8104  -5.4030  -5.4030  -5.3741  -5.3741
     5.3485   5.3485   5.3827   5.3827   6.1290   6.1290   6.1691   6.1691
     7.1755   7.1755   7.2353   7.2353   8.5773   8.5773   8.6200   8.6200
     9.3420   9.3420   9.3998   9.3998  10.2088  10.2088  10.3077  10.3077
    11.9717  11.9717  12.0112  12.0112  12.6848  12.6848  12.9267  12.9267
    13.2230  13.2230  13.4727  13.4727  16.2225  16.2225  16.3555  16.3555
    17.0563  17.0563  17.1851  17.1851  22.8719  22.8724

     occupation numbers 
     1.0000   1.0000   1.0000   1.0000   1.0000   1.0000   1.0000   1.0000
     1.0000   1.0000   1.0000   1.0000   1.0000   1.0000   1.0000   1.0000
     1.0000   1.0000   1.0000   1.0000   1.0000   1.0000   1.0000   1.0000
     1.0000   1.0000   1.0000   1.0000   1.0000   1.0000   1.0000   1.0000
     1.0000   1.0000   1.0000   1.0000   1.0000   1.0000   1.0000   1.0000
     1.0000   1.0000   1.0000   1.0000   1.0000   1.0000   1.0000   1.0000
     1.0000   1.0000   1.0000   1.0000   1.0000   1.0000   1.0000   1.0000
     1.0000   1.0000   1.0000   1.0000  -0.0000  -0.0000  -0.0000  -0.0000
    -0.0000  -0.0000  -0.0000  -0.0000  -0.0000  -0.0000

          k = 0.4545 0.4545-0.7124 (  5374 PWs)   bands (ev):

   -79.3809 -79.3809 -79.3809 -79.3809 -46.2325 -46.2325 -46.2322 -46.2322
   -32.8170 -32.8170 -32.8108 -32.8108 -32.6347 -32.6347 -32.6307 -32.6307
    -5.6615  -5.6615  -5.6135  -5.6135  -5.5066  -5.5066  -5.4298  -5.4298
     5.7089   5.7089   5.7734   5.7734   6.1084   6.1084   6.3097   6.3097
     6.6244   6.6244   6.8300   6.8300   8.2376   8.2376   8.2890   8.2890
     9.6334   9.6334   9.6637   9.6637  10.6216  10.6216  10.6887  10.6887
    11.9180  11.9180  11.9406  11.9406  12.4341  12.4341  12.6769  12.6769
    13.3902  13.3902  13.6271  13.6271  15.9082  15.9082  16.0762  16.0762
    17.0287  17.0287  17.2043  17.2043  23.0563  23.0574

     occupation numbers 
     1.0000   1.0000   1.0000   1.0000   1.0000   1.0000   1.0000   1.0000
     1.0000   1.0000   1.0000   1.0000   1.0000   1.0000   1.0000   1.0000
     1.0000   1.0000   1.0000   1.0000   1.0000   1.0000   1.0000   1.0000
     1.0000   1.0000   1.0000   1.0000   1.0000   1.0000   1.0000   1.0000
     1.0000   1.0000   1.0000   1.0000   1.0000   1.0000   1.0000   1.0000
     1.0000   1.0000   1.0000   1.0000   1.0000   1.0000   1.0000   1.0000
     1.0000   1.0000   1.0000   1.0000   1.0000   1.0000   1.0000   1.0000
     1.0000   1.0000   1.0000   1.0000  -0.0000  -0.0000  -0.0000  -0.0000
    -0.0000  -0.0000  -0.0000  -0.0000  -0.0000  -0.0000

     the Fermi energy is    13.8487 ev

!    total energy              =    -553.08008111 Ry
     estimated scf accuracy    <          3.3E-11 Ry
     smearing contrib. (-TS)   =      -0.00008005 Ry
     internal energy E=F+TS    =    -553.08000106 Ry

     The total energy is F=E-TS. E is the sum of the following terms:
     one-electron contribution =    -190.91170700 Ry
     hartree contribution      =     122.73296564 Ry
     xc contribution           =     -69.91524918 Ry
     ewald contribution        =    -414.98601052 Ry

     convergence has been achieved in  10 iterations

     Forces acting on atoms (cartesian axes, Ry/au):

     atom    1 type  2   force =     0.00000000    0.00000000    0.00000000
     atom    2 type  2   force =     0.00000000    0.00000000    0.00000000
     atom    3 type  1   force =     0.00036428   -0.00036428    0.00000000
     atom    4 type  1   force =    -0.00036428   -0.00036428   -0.00000000
     atom    5 type  1   force =     0.00036428    0.00036428   -0.00000000
     atom    6 type  1   force =    -0.00036428    0.00036428    0.00000000
     The non-local contrib.  to forces
     atom    1 type  2   force =     0.00000000    0.00000000    0.00000000
     atom    2 type  2   force =     0.00000000    0.00000000   -0.00000000
     atom    3 type  1   force =    -0.05391261    0.05391261    0.00000000
     atom    4 type  1   force =     0.05391261    0.05391261    0.00000000
     atom    5 type  1   force =    -0.05391261   -0.05391261    0.00000000
     atom    6 type  1   force =     0.05391261   -0.05391261    0.00000000
     The ionic contribution  to forces
     atom    1 type  2   force =    -0.00000000   -0.00000000    0.00000000
     atom    2 type  2   force =     0.00000000    0.00000000   -0.00000000
     atom    3 type  1   force =     1.42937233   -1.42937233    0.00000000
     atom    4 type  1   force =    -1.42937233   -1.42937233   -0.00000000
     atom    5 type  1   force =     1.42937233    1.42937233   -0.00000000
     atom    6 type  1   force =    -1.42937233    1.42937233    0.00000000
     The local contribution  to forces
     atom    1 type  2   force =     0.00000000    0.00000000   -0.00000000
     atom    2 type  2   force =     0.00000000    0.00000000    0.00000000
     atom    3 type  1   force =    -1.37509459    1.37509459    0.00000000
     atom    4 type  1   force =     1.37509459    1.37509459   -0.00000000
     atom    5 type  1   force =    -1.37509459   -1.37509459   -0.00000000
     atom    6 type  1   force =     1.37509459   -1.37509459    0.00000000
     The core correction contribution to forces
     atom    1 type  2   force =     0.00000000    0.00000000    0.00000000
     atom    2 type  2   force =     0.00000000    0.00000000    0.00000000
     atom    3 type  1   force =     0.00000000    0.00000000    0.00000000
     atom    4 type  1   force =     0.00000000    0.00000000    0.00000000
     atom    5 type  1   force =     0.00000000    0.00000000    0.00000000
     atom    6 type  1   force =     0.00000000    0.00000000    0.00000000
     The Hubbard contrib.    to forces
     atom    1 type  2   force =     0.00000000    0.00000000    0.00000000
     atom    2 type  2   force =     0.00000000    0.00000000    0.00000000
     atom    3 type  1   force =     0.00000000    0.00000000    0.00000000
     atom    4 type  1   force =     0.00000000    0.00000000    0.00000000
     atom    5 type  1   force =     0.00000000    0.00000000    0.00000000
     atom    6 type  1   force =     0.00000000    0.00000000    0.00000000
     The SCF correction term to forces
     atom    1 type  2   force =     0.00000000    0.00000000    0.00000000
     atom    2 type  2   force =    -0.00000000   -0.00000000    0.00000000
     atom    3 type  1   force =    -0.00000085    0.00000085   -0.00000000
     atom    4 type  1   force =     0.00000085    0.00000085   -0.00000000
     atom    5 type  1   force =    -0.00000085   -0.00000085   -0.00000000
     atom    6 type  1   force =     0.00000085   -0.00000085   -0.00000000

     Total force =     0.001030     Total SCF correction =     0.000002


     Computing stress (Cartesian axis) and pressure

          total   stress  (Ry/bohr**3)                   (kbar)     P=      -19.98
  -0.00011688   0.00000000   0.00000000          -17.19        0.00        0.00
   0.00000000  -0.00011688   0.00000000            0.00      -17.19        0.00
   0.00000000   0.00000000  -0.00017370            0.00        0.00      -25.55

     kinetic stress (kbar)  48457.42      0.00      0.00
                                0.00  48457.42      0.00
                                0.00      0.00  47522.93

     local   stress (kbar) -12688.54      0.00     -0.00
                                0.00 -12688.54      0.00
                               -0.00      0.00 -44396.82

     nonloc. stress (kbar)  14527.21      0.00      0.00
                                0.00  14527.21      0.00
                                0.00      0.00  14740.89

     hartree stress (kbar)   9611.18     -0.00      0.00
                               -0.00   9611.18      0.00
                                0.00      0.00  21378.44

     exc-cor stress (kbar)  -7288.26     -0.00      0.00
                               -0.00  -7288.26      0.00
                                0.00      0.00  -7263.54

     corecor stress (kbar)      0.00      0.00      0.00
                                0.00      0.00      0.00
                                0.00      0.00      0.00

     ewald   stress (kbar) -52636.21     -0.00     -0.00
                               -0.00 -52636.21     -0.00
                               -0.00     -0.00 -32007.45

     hubbard stress (kbar)      0.00      0.00      0.00
                                0.00      0.00      0.00
                                0.00      0.00      0.00

     DFT-D   stress (kbar)      0.00      0.00      0.00
                                0.00      0.00      0.00
                                0.00      0.00      0.00

     XDM     stress (kbar)      0.00      0.00      0.00
                                0.00      0.00      0.00
                                0.00      0.00      0.00

     dft-nl  stress (kbar)      0.00      0.00      0.00
                                0.00      0.00      0.00
                                0.00      0.00      0.00

     TS-vdW  stress (kbar)      0.00      0.00      0.00
                                0.00      0.00      0.00
                                0.00      0.00      0.00


                                0.00      0.00      0.00
                                0.00      0.00      0.00


                                0.00      0.00      0.00


     Writing all to output data dir tmp/espresso.save/
 
     init_run     :      8.43s CPU      4.35s WALL (       1 calls)
     electrons    :    285.58s CPU    146.41s WALL (       1 calls)
     forces       :     15.85s CPU      8.10s WALL (       1 calls)
     stress       :     22.16s CPU     11.19s WALL (       1 calls)

     Called by init_run:
     wfcinit      :      8.37s CPU      4.29s WALL (       1 calls)
     wfcinit:atom :      0.03s CPU      0.01s WALL (      84 calls)
     wfcinit:wfcr :      8.15s CPU      4.17s WALL (      84 calls)
     potinit      :      0.02s CPU      0.01s WALL (       1 calls)
     hinit0       :      0.03s CPU      0.03s WALL (       1 calls)

     Called by electrons:
     c_bands      :    261.75s CPU    134.13s WALL (      10 calls)
     sum_band     :     23.69s CPU     12.19s WALL (      10 calls)
     v_of_rho     :      0.05s CPU      0.03s WALL (      11 calls)
     v_h          :      0.01s CPU      0.00s WALL (      11 calls)
     v_xc         :      0.04s CPU      0.02s WALL (      11 calls)
     mix_rho      :      0.05s CPU      0.03s WALL (      10 calls)

     Called by c_bands:
     init_us_2    :      0.74s CPU      0.39s WALL (    1932 calls)
     init_us_2:cp :      0.72s CPU      0.39s WALL (    1932 calls)
     cegterg      :    241.48s CPU    123.79s WALL (     840 calls)

     Called by sum_band:
     sum_band:wei :      0.15s CPU      0.08s WALL (      10 calls)
     sum_band:loo :     23.52s CPU     12.10s WALL (      10 calls)
     sum_band:buf :      0.13s CPU      0.07s WALL (     840 calls)
     sum_band:ini :      0.24s CPU      0.12s WALL (     840 calls)

     Called by *egterg:
     cdiaghg      :     35.43s CPU     18.02s WALL (    2870 calls)
     cegterg:over :     14.85s CPU      7.55s WALL (    2030 calls)
     cegterg:upda :     11.75s CPU      5.98s WALL (    2030 calls)
     cegterg:last :     20.85s CPU     10.60s WALL (    1680 calls)
     cdiaghg:chol :      1.64s CPU      0.84s WALL (    2870 calls)
     cdiaghg:inve :      0.26s CPU      0.13s WALL (    2870 calls)
     cdiaghg:para :      3.74s CPU      1.91s WALL (    5740 calls)
     h_psi        :    160.51s CPU     82.65s WALL (    2954 calls)
     g_psi        :      0.24s CPU      0.12s WALL (    2030 calls)

     Called by h_psi:
     h_psi:calbec :     19.40s CPU     10.17s WALL (    2954 calls)
     vloc_psi     :    112.90s CPU     58.13s WALL (    2954 calls)
     add_vuspsi   :     27.85s CPU     14.17s WALL (    2954 calls)

     General routines
     calbec       :     26.34s CPU     13.74s WALL (    3374 calls)
     fft          :      0.06s CPU      0.03s WALL (     150 calls)
     ffts         :      0.01s CPU      0.01s WALL (      40 calls)
     fftw         :    127.79s CPU     65.80s WALL (  721596 calls)
 
     Parallel routines
 
     PWSCF        :   5m41.79s CPU   3m 0.96s WALL

 
   This run was terminated on:  10:37: 2  10Apr2022            

=------------------------------------------------------------------------------=
   JOB DONE.
=------------------------------------------------------------------------------=
