
     Program PWSCF v.7.0 starts on 10Apr2022 at  9:49:23 

     This program is part of the open-source Quantum ESPRESSO suite
     for quantum simulation of materials; please cite
         "P. Giannozzi et al., J. Phys.:Condens. Matter 21 395502 (2009);
         "P. Giannozzi et al., J. Phys.:Condens. Matter 29 465901 (2017);
         "P. Giannozzi et al., J. Chem. Phys. 152 154105 (2020);
          URL http://www.quantum-espresso.org", 
     in publications or presentations arising from this work. More details at
     http://www.quantum-espresso.org/quote

     Parallel version (MPI & OpenMP), running on      64 processor cores
     Number of MPI processes:                32
     Threads/MPI process:                     2

     MPI processes distributed on     1 nodes
     R & G space division:  proc/nbgrp/npool/nimage =      32
     231177 MiB available memory on the printing compute node when the environment starts
 
     Reading input from kpoints_443.pwi
Warning: card &CELL ignored
Warning: card / ignored

     Current dimensions of program PWSCF are:
     Max number of different atomic species (ntypx) = 10
     Max number of k-points (npk) =  40000
     Max angular momentum in pseudopotentials (lmaxx) =  4

     Subspace diagonalization in iterative solution of the eigenvalue problem:
     one sub-group per band group will be used
     scalapack distributed-memory algorithm (size of sub-group:  5*  5 procs)

 
     Parallelization info
     --------------------
     sticks:   dense  smooth     PW     G-vecs:    dense   smooth      PW
     Min          58      58     17                 1342     1342     205
     Max          59      59     18                 1345     1345     207
     Sum        1885    1885    545                42999    42999    6563
 
     Using Slab Decomposition
 

     Title: 
     IrO2 Unit Cell                                                             


     bravais-lattice index     =            6
     lattice parameter (alat)  =       8.5888  a.u.
     unit-cell volume          =     444.6868 (a.u.)^3
     number of atoms/cell      =            6
     number of atomic types    =            2
     number of electrons       =        58.00
     number of Kohn-Sham states=           70
     kinetic-energy cutoff     =      80.0000  Ry
     charge density cutoff     =     320.0000  Ry
     scf convergence threshold =      1.0E-09
     mixing beta               =       0.7000
     number of iterations used =            8  plain     mixing
     Exchange-correlation= PBE
                           (   1   4   3   4   0   0   0)
     Non magnetic calculation with spin-orbit


     celldm(1)=   8.588800  celldm(2)=   0.000000  celldm(3)=   0.701870
     celldm(4)=   0.000000  celldm(5)=   0.000000  celldm(6)=   0.000000

     crystal axes: (cart. coord. in units of alat)
               a(1) = (   1.000000   0.000000   0.000000 )  
               a(2) = (   0.000000   1.000000   0.000000 )  
               a(3) = (   0.000000   0.000000   0.701870 )  

     reciprocal axes: (cart. coord. in units 2 pi/alat)
               b(1) = (  1.000000  0.000000  0.000000 )  
               b(2) = (  0.000000  1.000000  0.000000 )  
               b(3) = (  0.000000  0.000000  1.424765 )  


     PseudoPot. # 1 for O  read from file:
     ../../XX_PSEUDO/O_ONCV_PBE_fr.upf
     MD5 check sum: 59c925217d3b58c6d762355590b68b09
     Pseudo is Norm-conserving, Zval =  6.0
     Generated using ONCVPSP code by D. R. Hamann
     Using radial grid of  936 points,  6 beta functions with: 
                l(1) =   0
                l(2) =   0
                l(3) =   1
                l(4) =   1
                l(5) =   1
                l(6) =   1

     PseudoPot. # 2 for Ir read from file:
     ../../XX_PSEUDO/Ir_ONCV_PBE_fr.upf
     MD5 check sum: 924e909c4146afa09f62ee3401806954
     Pseudo is Norm-conserving, Zval = 17.0
     Generated using ONCVPSP code by D. R. Hamann
     Using radial grid of 1310 points, 14 beta functions with: 
                l(1) =   0
                l(2) =   0
                l(3) =   1
                l(4) =   1
                l(5) =   1
                l(6) =   1
                l(7) =   2
                l(8) =   2
                l(9) =   2
               l(10) =   2
               l(11) =   3
               l(12) =   3
               l(13) =   3
               l(14) =   3

     atomic species   valence    mass     pseudopotential
        O              6.00    15.99900     O ( 1.00)
        Ir            17.00   192.21700     Ir( 1.00)

     16 Sym. Ops., with inversion, found ( 8 have fractional translation)


                                    s                        frac. trans.

      isym =  1     identity                                     

 cryst.   s( 1) = (     1          0          0      )
                  (     0          1          0      )
                  (     0          0          1      )

 cart.    s( 1) = (  1.0000000  0.0000000  0.0000000 )
                  (  0.0000000  1.0000000  0.0000000 )
                  (  0.0000000  0.0000000  1.0000000 )


      isym =  2     180 deg rotation - cart. axis [0,0,1]        

 cryst.   s( 2) = (    -1          0          0      )
                  (     0         -1          0      )
                  (     0          0          1      )

 cart.    s( 2) = ( -1.0000000  0.0000000  0.0000000 )
                  (  0.0000000 -1.0000000  0.0000000 )
                  (  0.0000000  0.0000000  1.0000000 )


      isym =  3     180 deg rotation - cart. axis [0,1,0]        

 cryst.   s( 3) = (    -1          0          0      )    f =(  0.5000000 )
                  (     0          1          0      )       ( -0.5000000 )
                  (     0          0         -1      )       (  0.5000000 )

 cart.    s( 3) = ( -1.0000000  0.0000000  0.0000000 )    f =(  0.5000000 )
                  (  0.0000000  1.0000000  0.0000000 )       ( -0.5000000 )
                  (  0.0000000  0.0000000 -1.0000000 )       (  0.3509351 )


      isym =  4     180 deg rotation - cart. axis [1,0,0]        

 cryst.   s( 4) = (     1          0          0      )    f =( -0.5000000 )
                  (     0         -1          0      )       (  0.5000000 )
                  (     0          0         -1      )       (  0.5000000 )

 cart.    s( 4) = (  1.0000000  0.0000000  0.0000000 )    f =( -0.5000000 )
                  (  0.0000000 -1.0000000  0.0000000 )       (  0.5000000 )
                  (  0.0000000  0.0000000 -1.0000000 )       (  0.3509351 )


      isym =  5     180 deg rotation - cart. axis [1,1,0]        

 cryst.   s( 5) = (     0          1          0      )
                  (     1          0          0      )
                  (     0          0         -1      )

 cart.    s( 5) = (  0.0000000  1.0000000  0.0000000 )
                  (  1.0000000  0.0000000  0.0000000 )
                  (  0.0000000  0.0000000 -1.0000000 )


      isym =  6     180 deg rotation - cart. axis [1,-1,0]       

 cryst.   s( 6) = (     0         -1          0      )
                  (    -1          0          0      )
                  (     0          0         -1      )

 cart.    s( 6) = (  0.0000000 -1.0000000  0.0000000 )
                  ( -1.0000000  0.0000000  0.0000000 )
                  (  0.0000000  0.0000000 -1.0000000 )


      isym =  7      90 deg rotation - cart. axis [0,0,-1]       

 cryst.   s( 7) = (     0         -1          0      )    f =( -0.5000000 )
                  (     1          0          0      )       (  0.5000000 )
                  (     0          0          1      )       ( -0.5000000 )

 cart.    s( 7) = (  0.0000000  1.0000000  0.0000000 )    f =( -0.5000000 )
                  ( -1.0000000  0.0000000  0.0000000 )       (  0.5000000 )
                  (  0.0000000  0.0000000  1.0000000 )       ( -0.3509351 )


      isym =  8      90 deg rotation - cart. axis [0,0,1]        

 cryst.   s( 8) = (     0          1          0      )    f =(  0.5000000 )
                  (    -1          0          0      )       ( -0.5000000 )
                  (     0          0          1      )       ( -0.5000000 )

 cart.    s( 8) = (  0.0000000 -1.0000000  0.0000000 )    f =(  0.5000000 )
                  (  1.0000000  0.0000000  0.0000000 )       ( -0.5000000 )
                  (  0.0000000  0.0000000  1.0000000 )       ( -0.3509351 )


      isym =  9     inversion                                    

 cryst.   s( 9) = (    -1          0          0      )
                  (     0         -1          0      )
                  (     0          0         -1      )

 cart.    s( 9) = ( -1.0000000  0.0000000  0.0000000 )
                  (  0.0000000 -1.0000000  0.0000000 )
                  (  0.0000000  0.0000000 -1.0000000 )


      isym = 10     inv. 180 deg rotation - cart. axis [0,0,1]   

 cryst.   s(10) = (     1          0          0      )
                  (     0          1          0      )
                  (     0          0         -1      )

 cart.    s(10) = (  1.0000000  0.0000000  0.0000000 )
                  (  0.0000000  1.0000000  0.0000000 )
                  (  0.0000000  0.0000000 -1.0000000 )


      isym = 11     inv. 180 deg rotation - cart. axis [0,1,0]   

 cryst.   s(11) = (     1          0          0      )    f =( -0.5000000 )
                  (     0         -1          0      )       (  0.5000000 )
                  (     0          0          1      )       ( -0.5000000 )

 cart.    s(11) = (  1.0000000  0.0000000  0.0000000 )    f =( -0.5000000 )
                  (  0.0000000 -1.0000000  0.0000000 )       (  0.5000000 )
                  (  0.0000000  0.0000000  1.0000000 )       ( -0.3509351 )


      isym = 12     inv. 180 deg rotation - cart. axis [1,0,0]   

 cryst.   s(12) = (    -1          0          0      )    f =(  0.5000000 )
                  (     0          1          0      )       ( -0.5000000 )
                  (     0          0          1      )       ( -0.5000000 )

 cart.    s(12) = ( -1.0000000  0.0000000  0.0000000 )    f =(  0.5000000 )
                  (  0.0000000  1.0000000  0.0000000 )       ( -0.5000000 )
                  (  0.0000000  0.0000000  1.0000000 )       ( -0.3509351 )


      isym = 13     inv. 180 deg rotation - cart. axis [1,1,0]   

 cryst.   s(13) = (     0         -1          0      )
                  (    -1          0          0      )
                  (     0          0          1      )

 cart.    s(13) = (  0.0000000 -1.0000000  0.0000000 )
                  ( -1.0000000  0.0000000  0.0000000 )
                  (  0.0000000  0.0000000  1.0000000 )


      isym = 14     inv. 180 deg rotation - cart. axis [1,-1,0]  

 cryst.   s(14) = (     0          1          0      )
                  (     1          0          0      )
                  (     0          0          1      )

 cart.    s(14) = (  0.0000000  1.0000000  0.0000000 )
                  (  1.0000000  0.0000000  0.0000000 )
                  (  0.0000000  0.0000000  1.0000000 )


      isym = 15     inv.  90 deg rotation - cart. axis [0,0,-1]  

 cryst.   s(15) = (     0          1          0      )    f =(  0.5000000 )
                  (    -1          0          0      )       ( -0.5000000 )
                  (     0          0         -1      )       (  0.5000000 )

 cart.    s(15) = (  0.0000000 -1.0000000  0.0000000 )    f =(  0.5000000 )
                  (  1.0000000  0.0000000  0.0000000 )       ( -0.5000000 )
                  (  0.0000000  0.0000000 -1.0000000 )       (  0.3509351 )


      isym = 16     inv.  90 deg rotation - cart. axis [0,0,1]   

 cryst.   s(16) = (     0         -1          0      )    f =( -0.5000000 )
                  (     1          0          0      )       (  0.5000000 )
                  (     0          0         -1      )       (  0.5000000 )

 cart.    s(16) = (  0.0000000  1.0000000  0.0000000 )    f =( -0.5000000 )
                  ( -1.0000000  0.0000000  0.0000000 )       (  0.5000000 )
                  (  0.0000000  0.0000000 -1.0000000 )       (  0.3509351 )


     double point group D_4h(4/mmm)
     there are 14 classes and  4 irreducible representations
     the character table:

       E     -E    2C4   -2C4   C2    2C2' 2C2'' i     -i    2S4   -2S4   s_h 
                               -C2   -2C2' -2C2'                         -s_h 
G_6+   2.00 -2.00  1.41 -1.41  0.00  0.00  0.00  2.00 -2.00  1.41 -1.41  0.00
G_7+   2.00 -2.00 -1.41  1.41  0.00  0.00  0.00  2.00 -2.00 -1.41  1.41  0.00
G_6-   2.00 -2.00  1.41 -1.41  0.00  0.00  0.00 -2.00  2.00 -1.41  1.41  0.00
G_7-   2.00 -2.00 -1.41  1.41  0.00  0.00  0.00 -2.00  2.00  1.41 -1.41  0.00

        2s_v  2s_d
       -2s_v -2s_d
G_6+   0.00  0.00
G_7+   0.00  0.00
G_6-   0.00  0.00
G_7-   0.00  0.00

     the symmetry operations in each class and the name of the first element:

     E             1
          identity                                               
     -E           -1
          identity E                                             
     2C4           7    8
           90 deg rotation - cart. axis [0,0,-1]                 
     -2C4         -7   -8
           90 deg rotation - cart. axis [0,0,-1] E               
      C2  -C2      2   -2
          180 deg rotation - cart. axis [0,0,1]                  
      2C2'-2C2'    3   -3    4   -4
          180 deg rotation - cart. axis [0,1,0]                  
     2C2''-2C2'    5   -5   -6    6
          180 deg rotation - cart. axis [1,1,0]                  
     i             9
          inversion                                              
     -i           -9
          inversion E                                            
     2S4          15   16
          inv.  90 deg rotation - cart. axis [0,0,-1]            
     -2S4        -15  -16
          inv.  90 deg rotation - cart. axis [0,0,-1] E          
      s_h -s_h    10  -10
          inv. 180 deg rotation - cart. axis [0,0,1]             
      2s_v-2s_v   11  -11   12  -12
          inv. 180 deg rotation - cart. axis [0,1,0]             
      2s_d-2s_d   13  -13  -14   14
          inv. 180 deg rotation - cart. axis [1,1,0]             

   Cartesian axes

     site n.     atom                  positions (alat units)
         1           Ir  tau(   1) = (   0.0000000   0.0000000   0.0000000  )
         2           Ir  tau(   2) = (   0.5000000   0.5000000   0.3509351  )
         3           O   tau(   3) = (   0.1916000   0.8084000   0.3509351  )
         4           O   tau(   4) = (   0.3084000   0.3084000   0.0000000  )
         5           O   tau(   5) = (   0.6916000   0.6916000   0.0000000  )
         6           O   tau(   6) = (   0.8084000   0.1916000   0.3509351  )

   Crystallographic axes

     site n.     atom                  positions (cryst. coord.)
         1           Ir  tau(   1) = (  0.0000000  0.0000000  0.0000000  )
         2           Ir  tau(   2) = (  0.5000000  0.5000000  0.5000000  )
         3           O   tau(   3) = (  0.1916000  0.8084000  0.5000000  )
         4           O   tau(   4) = (  0.3084000  0.3084000  0.0000000  )
         5           O   tau(   5) = (  0.6916000  0.6916000  0.0000000  )
         6           O   tau(   6) = (  0.8084000  0.1916000  0.5000000  )

     number of k points=    12  Methfessel-Paxton smearing, width (Ry)=  0.0050
                       cart. coord. in units 2pi/alat
        k(    1) = (   0.0000000   0.0000000   0.0000000), wk =   0.0208333
        k(    2) = (   0.0000000   0.0000000   0.4749216), wk =   0.0416667
        k(    3) = (   0.0000000   0.2500000   0.0000000), wk =   0.0833333
        k(    4) = (   0.0000000   0.2500000   0.4749216), wk =   0.1666667
        k(    5) = (   0.0000000  -0.5000000   0.0000000), wk =   0.0416667
        k(    6) = (   0.0000000  -0.5000000   0.4749216), wk =   0.0833333
        k(    7) = (   0.2500000   0.2500000   0.0000000), wk =   0.0833333
        k(    8) = (   0.2500000   0.2500000   0.4749216), wk =   0.1666667
        k(    9) = (   0.2500000  -0.5000000   0.0000000), wk =   0.0833333
        k(   10) = (   0.2500000  -0.5000000   0.4749216), wk =   0.1666667
        k(   11) = (  -0.5000000  -0.5000000   0.0000000), wk =   0.0208333
        k(   12) = (  -0.5000000  -0.5000000   0.4749216), wk =   0.0416667

                       cryst. coord.
        k(    1) = (   0.0000000   0.0000000   0.0000000), wk =   0.0208333
        k(    2) = (   0.0000000   0.0000000   0.3333333), wk =   0.0416667
        k(    3) = (   0.0000000   0.2500000   0.0000000), wk =   0.0833333
        k(    4) = (   0.0000000   0.2500000   0.3333333), wk =   0.1666667
        k(    5) = (   0.0000000  -0.5000000   0.0000000), wk =   0.0416667
        k(    6) = (   0.0000000  -0.5000000   0.3333333), wk =   0.0833333
        k(    7) = (   0.2500000   0.2500000   0.0000000), wk =   0.0833333
        k(    8) = (   0.2500000   0.2500000   0.3333333), wk =   0.1666667
        k(    9) = (   0.2500000  -0.5000000   0.0000000), wk =   0.0833333
        k(   10) = (   0.2500000  -0.5000000   0.3333333), wk =   0.1666667
        k(   11) = (  -0.5000000  -0.5000000   0.0000000), wk =   0.0208333
        k(   12) = (  -0.5000000  -0.5000000   0.3333333), wk =   0.0416667

     Dense  grid:    42999 G-vectors     FFT dimensions: (  50,  50,  36)

     Dynamical RAM for                 wfc:       0.36 MB

     Dynamical RAM for     wfc (w. buffer):       4.64 MB

     Dynamical RAM for           str. fact:       0.04 MB

     Dynamical RAM for           local pot:       0.00 MB

     Dynamical RAM for          nlocal pot:       0.46 MB

     Dynamical RAM for                qrad:      20.10 MB

     Dynamical RAM for          rho,v,vnew:       0.70 MB

     Dynamical RAM for               rhoin:       0.23 MB

     Dynamical RAM for            rho*nmix:       1.31 MB

     Dynamical RAM for           G-vectors:       0.09 MB

     Dynamical RAM for          h,s,v(r/c):       0.04 MB

     Dynamical RAM for          <psi|beta>:       0.38 MB

     Dynamical RAM for                 psi:       0.71 MB

     Dynamical RAM for                hpsi:       0.71 MB

     Dynamical RAM for      wfcinit/wfcrot:       0.67 MB

     Estimated static dynamical RAM per process >      26.63 MB

     Estimated max dynamical RAM per process >      29.79 MB

     Estimated total dynamical RAM >     953.24 MB

     Initial potential from superposition of free atoms

     starting charge      57.9997, renormalised to      58.0000
     Starting wfcs are   72 randomized atomic wfcs

     total cpu time spent up to now is        0.8 secs

     Self-consistent Calculation

     iteration #  1     ecut=    80.00 Ry     beta= 0.70
     Davidson diagonalization with overlap

---- Real-time Memory Report at c_bands before calling an iterative solver
            76 MiB given to the printing process from OS
             0 MiB allocation reported by mallinfo(arena+hblkhd)
        229745 MiB available memory on the node where the printing process lives
------------------
     ethr =  1.00E-02,  avg # of iterations =  2.8

     total cpu time spent up to now is        2.9 secs

     total energy              =    -552.41882740 Ry
     estimated scf accuracy    <       1.22114169 Ry

     iteration #  2     ecut=    80.00 Ry     beta= 0.70
     Davidson diagonalization with overlap

---- Real-time Memory Report at c_bands before calling an iterative solver
            83 MiB given to the printing process from OS
             0 MiB allocation reported by mallinfo(arena+hblkhd)
        229591 MiB available memory on the node where the printing process lives
------------------
     ethr =  2.11E-03,  avg # of iterations =  2.0

     total cpu time spent up to now is        5.2 secs

     total energy              =    -552.32412040 Ry
     estimated scf accuracy    <       4.11293814 Ry

     iteration #  3     ecut=    80.00 Ry     beta= 0.70
     Davidson diagonalization with overlap

---- Real-time Memory Report at c_bands before calling an iterative solver
            85 MiB given to the printing process from OS
             0 MiB allocation reported by mallinfo(arena+hblkhd)
        229561 MiB available memory on the node where the printing process lives
------------------
     ethr =  2.11E-03,  avg # of iterations =  2.0

     total cpu time spent up to now is        7.3 secs

     total energy              =    -553.07145496 Ry
     estimated scf accuracy    <       0.02796597 Ry

     iteration #  4     ecut=    80.00 Ry     beta= 0.70
     Davidson diagonalization with overlap

---- Real-time Memory Report at c_bands before calling an iterative solver
            86 MiB given to the printing process from OS
             0 MiB allocation reported by mallinfo(arena+hblkhd)
        229552 MiB available memory on the node where the printing process lives
------------------
     ethr =  4.82E-05,  avg # of iterations =  2.6

     total cpu time spent up to now is        9.5 secs

     total energy              =    -553.07533416 Ry
     estimated scf accuracy    <       0.00351814 Ry

     iteration #  5     ecut=    80.00 Ry     beta= 0.70
     Davidson diagonalization with overlap

---- Real-time Memory Report at c_bands before calling an iterative solver
            87 MiB given to the printing process from OS
             0 MiB allocation reported by mallinfo(arena+hblkhd)
        229530 MiB available memory on the node where the printing process lives
------------------
     ethr =  6.07E-06,  avg # of iterations =  2.0

     total cpu time spent up to now is       11.4 secs

     total energy              =    -553.07586789 Ry
     estimated scf accuracy    <       0.00017283 Ry

     iteration #  6     ecut=    80.00 Ry     beta= 0.70
     Davidson diagonalization with overlap

---- Real-time Memory Report at c_bands before calling an iterative solver
            87 MiB given to the printing process from OS
             0 MiB allocation reported by mallinfo(arena+hblkhd)
        229528 MiB available memory on the node where the printing process lives
------------------
     ethr =  2.98E-07,  avg # of iterations =  2.0

     total cpu time spent up to now is       13.4 secs

     total energy              =    -553.07589567 Ry
     estimated scf accuracy    <       0.00000404 Ry

     iteration #  7     ecut=    80.00 Ry     beta= 0.70
     Davidson diagonalization with overlap

---- Real-time Memory Report at c_bands before calling an iterative solver
            88 MiB given to the printing process from OS
             0 MiB allocation reported by mallinfo(arena+hblkhd)
        229514 MiB available memory on the node where the printing process lives
------------------
     ethr =  6.97E-09,  avg # of iterations =  2.2

     total cpu time spent up to now is       15.7 secs

     total energy              =    -553.07589712 Ry
     estimated scf accuracy    <       0.00000062 Ry

     iteration #  8     ecut=    80.00 Ry     beta= 0.70
     Davidson diagonalization with overlap

---- Real-time Memory Report at c_bands before calling an iterative solver
            89 MiB given to the printing process from OS
             0 MiB allocation reported by mallinfo(arena+hblkhd)
        229474 MiB available memory on the node where the printing process lives
------------------
     ethr =  1.08E-09,  avg # of iterations =  2.1

     total cpu time spent up to now is       17.6 secs

     total energy              =    -553.07589720 Ry
     estimated scf accuracy    <       0.00000004 Ry

     iteration #  9     ecut=    80.00 Ry     beta= 0.70
     Davidson diagonalization with overlap

---- Real-time Memory Report at c_bands before calling an iterative solver
            89 MiB given to the printing process from OS
             0 MiB allocation reported by mallinfo(arena+hblkhd)
        229469 MiB available memory on the node where the printing process lives
------------------
     ethr =  6.83E-11,  avg # of iterations =  2.8

     total cpu time spent up to now is       19.8 secs

     total energy              =    -553.07589721 Ry
     estimated scf accuracy    <          5.9E-09 Ry

     iteration # 10     ecut=    80.00 Ry     beta= 0.70
     Davidson diagonalization with overlap

---- Real-time Memory Report at c_bands before calling an iterative solver
            92 MiB given to the printing process from OS
             0 MiB allocation reported by mallinfo(arena+hblkhd)
        229456 MiB available memory on the node where the printing process lives
------------------
     ethr =  1.01E-11,  avg # of iterations =  2.0

     total cpu time spent up to now is       21.8 secs

     End of self-consistent calculation

          k = 0.0000 0.0000 0.0000 (  5409 PWs)   bands (ev):

   -79.3769 -79.3769 -79.3756 -79.3756 -46.2204 -46.2204 -46.2097 -46.2097
   -32.7592 -32.7592 -32.7474 -32.7474 -32.6180 -32.6180 -32.6047 -32.6047
    -7.0692  -7.0692  -5.9129  -5.9129  -4.9974  -4.9974  -4.7959  -4.7959
     4.2723   4.2723   4.5203   4.5203   6.0370   6.0370   6.1486   6.1486
     6.2610   6.2610   8.7915   8.7915   8.9430   8.9430   9.2008   9.2008
    10.3392  10.3392  10.9943  10.9943  10.9957  10.9957  11.0368  11.0368
    11.2055  11.2055  11.3855  11.3855  11.6528  11.6528  11.6781  11.6781
    12.0608  12.0608  14.6494  14.6494  15.0740  15.0740  17.6938  17.6938
    17.9000  17.9000  18.0512  18.0512  19.4544  19.4544

     occupation numbers 
     1.0000   1.0000   1.0000   1.0000   1.0000   1.0000   1.0000   1.0000
     1.0000   1.0000   1.0000   1.0000   1.0000   1.0000   1.0000   1.0000
     1.0000   1.0000   1.0000   1.0000   1.0000   1.0000   1.0000   1.0000
     1.0000   1.0000   1.0000   1.0000   1.0000   1.0000   1.0000   1.0000
     1.0000   1.0000   1.0000   1.0000   1.0000   1.0000   1.0000   1.0000
     1.0000   1.0000   1.0000   1.0000   1.0000   1.0000   1.0000   1.0000
     1.0000   1.0000   1.0000   1.0000   1.0000   1.0000   1.0000   1.0000
     1.0000   1.0000  -0.0000  -0.0000  -0.0000  -0.0000  -0.0000  -0.0000
    -0.0000  -0.0000  -0.0000  -0.0000  -0.0000  -0.0000

          k = 0.0000 0.0000 0.4749 (  5385 PWs)   bands (ev):

   -79.3748 -79.3748 -79.3741 -79.3741 -46.2261 -46.2261 -46.2208 -46.2208
   -32.7922 -32.7922 -32.7879 -32.7879 -32.6365 -32.6365 -32.6193 -32.6193
    -6.2429  -6.2429  -5.6163  -5.6163  -5.3073  -5.3073  -5.2383  -5.2383
     5.3367   5.3367   5.5095   5.5095   6.5604   6.5604   6.7309   6.7309
     6.8483   6.8483   7.3083   7.3083   7.6411   7.6411   8.6757   8.6757
     8.8301   8.8301   9.6654   9.6654   9.9115   9.9115   9.9420   9.9420
    11.7986  11.7986  12.1898  12.1898  12.2761  12.2761  13.5586  13.5586
    13.6514  13.6514  14.1965  14.1965  15.9818  15.9818  16.3378  16.3378
    16.6330  16.6330  17.3688  17.3688  20.8880  20.8880

     occupation numbers 
     1.0000   1.0000   1.0000   1.0000   1.0000   1.0000   1.0000   1.0000
     1.0000   1.0000   1.0000   1.0000   1.0000   1.0000   1.0000   1.0000
     1.0000   1.0000   1.0000   1.0000   1.0000   1.0000   1.0000   1.0000
     1.0000   1.0000   1.0000   1.0000   1.0000   1.0000   1.0000   1.0000
     1.0000   1.0000   1.0000   1.0000   1.0000   1.0000   1.0000   1.0000
     1.0000   1.0000   1.0000   1.0000   1.0000   1.0000   1.0000   1.0000
     1.0000   1.0000   1.0000   1.0000   1.0000   1.0000   1.0000   1.0000
     1.0001   1.0001  -0.0000  -0.0000  -0.0000  -0.0000  -0.0000  -0.0000
    -0.0000  -0.0000  -0.0000  -0.0000  -0.0000  -0.0000

          k = 0.0000 0.2500 0.0000 (  5376 PWs)   bands (ev):

   -79.3767 -79.3767 -79.3757 -79.3757 -46.2189 -46.2189 -46.2113 -46.2113
   -32.7559 -32.7559 -32.7475 -32.7475 -32.6179 -32.6179 -32.6086 -32.6086
    -6.8399  -6.8399  -5.9085  -5.9085  -5.1854  -5.1854  -4.9901  -4.9901
     4.8273   4.8273   4.9535   4.9535   6.1161   6.1161   6.1961   6.1961
     6.6527   6.6527   8.1730   8.1730   8.3536   8.3536   8.6810   8.6810
     9.5144   9.5144   9.6482   9.6482  10.6173  10.6173  11.3702  11.3702
    11.7051  11.7051  11.8094  11.8094  12.0475  12.0475  12.2108  12.2108
    12.6435  12.6435  14.6172  14.6172  15.5962  15.5962  17.4757  17.4757
    17.7558  17.7558  18.8523  18.8523  18.9417  18.9417

     occupation numbers 
     1.0000   1.0000   1.0000   1.0000   1.0000   1.0000   1.0000   1.0000
     1.0000   1.0000   1.0000   1.0000   1.0000   1.0000   1.0000   1.0000
     1.0000   1.0000   1.0000   1.0000   1.0000   1.0000   1.0000   1.0000
     1.0000   1.0000   1.0000   1.0000   1.0000   1.0000   1.0000   1.0000
     1.0000   1.0000   1.0000   1.0000   1.0000   1.0000   1.0000   1.0000
     1.0000   1.0000   1.0000   1.0000   1.0000   1.0000   1.0000   1.0000
     1.0000   1.0000   1.0000   1.0000   1.0000   1.0000   1.0000   1.0000
     1.0000   1.0000  -0.0000  -0.0000  -0.0000  -0.0000  -0.0000  -0.0000
    -0.0000  -0.0000  -0.0000  -0.0000  -0.0000  -0.0000

          k = 0.0000 0.2500 0.4749 (  5376 PWs)   bands (ev):

   -79.3747 -79.3747 -79.3742 -79.3742 -46.2255 -46.2255 -46.2215 -46.2215
   -32.7999 -32.7999 -32.7799 -32.7799 -32.6372 -32.6372 -32.6193 -32.6193
    -6.1142  -6.1142  -5.6121  -5.6121  -5.4117  -5.4117  -5.2924  -5.2924
     5.5960   5.5960   5.6989   5.6989   6.1938   6.1938   6.6008   6.6008
     7.0557   7.0557   7.1623   7.1623   7.8755   7.8755   8.6607   8.6607
     9.0420   9.0420   9.2961   9.2961   9.5773   9.5773  10.5268  10.5268
    11.5820  11.5820  12.1799  12.1799  12.3282  12.3282  13.0039  13.0039
    13.7666  13.7666  14.2499  14.2499  15.6374  15.6374  15.8326  15.8326
    17.0828  17.0828  18.1108  18.1108  21.3071  21.3071

     occupation numbers 
     1.0000   1.0000   1.0000   1.0000   1.0000   1.0000   1.0000   1.0000
     1.0000   1.0000   1.0000   1.0000   1.0000   1.0000   1.0000   1.0000
     1.0000   1.0000   1.0000   1.0000   1.0000   1.0000   1.0000   1.0000
     1.0000   1.0000   1.0000   1.0000   1.0000   1.0000   1.0000   1.0000
     1.0000   1.0000   1.0000   1.0000   1.0000   1.0000   1.0000   1.0000
     1.0000   1.0000   1.0000   1.0000   1.0000   1.0000   1.0000   1.0000
     1.0000   1.0000   1.0000   1.0000   1.0000   1.0000   1.0000   1.0000
     1.0315   1.0315  -0.0000  -0.0000  -0.0000  -0.0000  -0.0000  -0.0000
    -0.0000  -0.0000  -0.0000  -0.0000  -0.0000  -0.0000

          k = 0.0000-0.5000 0.0000 (  5380 PWs)   bands (ev):

   -79.3762 -79.3762 -79.3762 -79.3762 -46.2151 -46.2151 -46.2151 -46.2151
   -32.7500 -32.7500 -32.7500 -32.7500 -32.6152 -32.6152 -32.6152 -32.6152
    -6.2750  -6.2750  -6.2750  -6.2750  -5.2575  -5.2575  -5.2575  -5.2575
     5.6333   5.6333   5.6333   5.6333   6.2439   6.2439   6.2439   6.2439
     7.2679   7.2679   7.2679   7.2679   7.8947   7.8947   7.8947   7.8947
     8.7759   8.7759   8.7759   8.7759  10.8339  10.8339  10.8339  10.8339
    12.1252  12.1252  12.1252  12.1252  12.5101  12.5101  12.5101  12.5101
    13.6391  13.6391  13.6391  13.6391  17.2245  17.2245  17.2245  17.2245
    17.5230  17.5230  17.5230  17.5230  20.7750  20.7750

     occupation numbers 
     1.0000   1.0000   1.0000   1.0000   1.0000   1.0000   1.0000   1.0000
     1.0000   1.0000   1.0000   1.0000   1.0000   1.0000   1.0000   1.0000
     1.0000   1.0000   1.0000   1.0000   1.0000   1.0000   1.0000   1.0000
     1.0000   1.0000   1.0000   1.0000   1.0000   1.0000   1.0000   1.0000
     1.0000   1.0000   1.0000   1.0000   1.0000   1.0000   1.0000   1.0000
     1.0000   1.0000   1.0000   1.0000   1.0000   1.0000   1.0000   1.0000
     1.0000   1.0000   1.0000   1.0000   1.0000   1.0000   1.0000   1.0000
     1.0000   1.0000   1.0000   1.0000  -0.0000  -0.0000  -0.0000  -0.0000
    -0.0000  -0.0000  -0.0000  -0.0000  -0.0000  -0.0000

          k = 0.0000-0.5000 0.4749 (  5380 PWs)   bands (ev):

   -79.3745 -79.3745 -79.3745 -79.3745 -46.2244 -46.2244 -46.2227 -46.2227
   -32.8038 -32.8038 -32.7758 -32.7758 -32.6378 -32.6378 -32.6193 -32.6193
    -5.8097  -5.8097  -5.8058  -5.8058  -5.4870  -5.4870  -5.3534  -5.3534
     5.9395   5.9395   5.9651   5.9651   6.1711   6.1711   6.2024   6.2024
     6.9227   6.9227   7.1727   7.1727   8.3236   8.3236   8.3460   8.3460
     8.9299   8.9299   9.0204   9.0204  10.2618  10.2618  10.3109  10.3109
    11.7272  11.7272  11.7712  11.7712  12.3915  12.3915  12.6857  12.6857
    13.8607  13.8607  14.2727  14.2727  15.3448  15.3448  15.3941  15.3941
    17.9860  17.9860  18.1208  18.1208  22.5235  22.5238

     occupation numbers 
     1.0000   1.0000   1.0000   1.0000   1.0000   1.0000   1.0000   1.0000
     1.0000   1.0000   1.0000   1.0000   1.0000   1.0000   1.0000   1.0000
     1.0000   1.0000   1.0000   1.0000   1.0000   1.0000   1.0000   1.0000
     1.0000   1.0000   1.0000   1.0000   1.0000   1.0000   1.0000   1.0000
     1.0000   1.0000   1.0000   1.0000   1.0000   1.0000   1.0000   1.0000
     1.0000   1.0000   1.0000   1.0000   1.0000   1.0000   1.0000   1.0000
     1.0000   1.0000   1.0000   1.0000   1.0000   1.0000   1.0000   1.0000
     0.5201   0.5201  -0.0000  -0.0000  -0.0000  -0.0000  -0.0000  -0.0000
    -0.0000  -0.0000  -0.0000  -0.0000  -0.0000  -0.0000

          k = 0.2500 0.2500 0.0000 (  5379 PWs)   bands (ev):

   -79.3765 -79.3765 -79.3759 -79.3759 -46.2178 -46.2178 -46.2124 -46.2124
   -32.7549 -32.7549 -32.7483 -32.7483 -32.6173 -32.6173 -32.6100 -32.6100
    -6.7005  -6.7005  -5.9904  -5.9904  -5.2980  -5.2980  -4.9567  -4.9567
     4.4044   4.4044   5.6573   5.6573   6.0562   6.0562   6.2490   6.2490
     6.9833   6.9833   7.3168   7.3168   8.6401   8.6401   8.9115   8.9115
     9.6676   9.6676   9.8249   9.8249  10.0830  10.0830  11.0629  11.0629
    11.1979  11.1979  11.6804  11.6804  12.1776  12.1776  12.5252  12.5252
    13.1336  13.1336  14.4479  14.4479  15.6617  15.6617  17.3350  17.3350
    17.8183  17.8183  18.3245  18.3245  19.8871  19.8871

     occupation numbers 
     1.0000   1.0000   1.0000   1.0000   1.0000   1.0000   1.0000   1.0000
     1.0000   1.0000   1.0000   1.0000   1.0000   1.0000   1.0000   1.0000
     1.0000   1.0000   1.0000   1.0000   1.0000   1.0000   1.0000   1.0000
     1.0000   1.0000   1.0000   1.0000   1.0000   1.0000   1.0000   1.0000
     1.0000   1.0000   1.0000   1.0000   1.0000   1.0000   1.0000   1.0000
     1.0000   1.0000   1.0000   1.0000   1.0000   1.0000   1.0000   1.0000
     1.0000   1.0000   1.0000   1.0000   1.0000   1.0000   1.0000   1.0000
     1.0000   1.0000  -0.0000  -0.0000  -0.0000  -0.0000  -0.0000  -0.0000
    -0.0000  -0.0000  -0.0000  -0.0000  -0.0000  -0.0000

          k = 0.2500 0.2500 0.4749 (  5360 PWs)   bands (ev):

   -79.3746 -79.3746 -79.3743 -79.3743 -46.2250 -46.2250 -46.2220 -46.2220
   -32.8000 -32.8000 -32.7800 -32.7800 -32.6362 -32.6362 -32.6205 -32.6205
    -6.0210  -6.0210  -5.6396  -5.6396  -5.4588  -5.4588  -5.3077  -5.3077
     5.3982   5.3982   5.9686   5.9686   6.1617   6.1617   6.3448   6.3448
     6.8187   6.8187   7.4708   7.4708   8.1563   8.1563   8.4963   8.4963
     8.8270   8.8270   9.5693   9.5693   9.7021   9.7021  10.8354  10.8354
    11.3909  11.3909  12.0280  12.0280  12.4427  12.4427  13.1249  13.1249
    13.3781  13.3781  14.2494  14.2494  15.3322  15.3322  16.3525  16.3525
    16.9023  16.9023  18.1175  18.1175  21.6929  21.6929

     occupation numbers 
     1.0000   1.0000   1.0000   1.0000   1.0000   1.0000   1.0000   1.0000
     1.0000   1.0000   1.0000   1.0000   1.0000   1.0000   1.0000   1.0000
     1.0000   1.0000   1.0000   1.0000   1.0000   1.0000   1.0000   1.0000
     1.0000   1.0000   1.0000   1.0000   1.0000   1.0000   1.0000   1.0000
     1.0000   1.0000   1.0000   1.0000   1.0000   1.0000   1.0000   1.0000
     1.0000   1.0000   1.0000   1.0000   1.0000   1.0000   1.0000   1.0000
     1.0000   1.0000   1.0000   1.0000   1.0000   1.0000   1.0000   1.0000
     1.0000   1.0000  -0.0000  -0.0000  -0.0000  -0.0000  -0.0000  -0.0000
    -0.0000  -0.0000  -0.0000  -0.0000  -0.0000  -0.0000

          k = 0.2500-0.5000 0.0000 (  5384 PWs)   bands (ev):

   -79.3762 -79.3762 -79.3762 -79.3762 -46.2151 -46.2151 -46.2151 -46.2151
   -32.7514 -32.7514 -32.7514 -32.7514 -32.6140 -32.6140 -32.6140 -32.6140
    -6.3463  -6.3463  -6.3463  -6.3463  -5.1390  -5.1390  -5.1390  -5.1390
     4.8835   4.8835   4.8835   4.8835   6.1120   6.1120   6.1120   6.1120
     7.8885   7.8885   7.8885   7.8885   8.6834   8.6834   8.6834   8.6834
     9.1577   9.1577   9.1577   9.1577  10.2969  10.2969  10.2969  10.2969
    11.7995  11.7995  11.7995  11.7995  12.1729  12.1729  12.1729  12.1729
    13.8735  13.8735  13.8735  13.8735  16.7436  16.7436  16.7436  16.7436
    17.6864  17.6864  17.6864  17.6864  21.4516  21.4516

     occupation numbers 
     1.0000   1.0000   1.0000   1.0000   1.0000   1.0000   1.0000   1.0000
     1.0000   1.0000   1.0000   1.0000   1.0000   1.0000   1.0000   1.0000
     1.0000   1.0000   1.0000   1.0000   1.0000   1.0000   1.0000   1.0000
     1.0000   1.0000   1.0000   1.0000   1.0000   1.0000   1.0000   1.0000
     1.0000   1.0000   1.0000   1.0000   1.0000   1.0000   1.0000   1.0000
     1.0000   1.0000   1.0000   1.0000   1.0000   1.0000   1.0000   1.0000
     1.0000   1.0000   1.0000   1.0000   1.0000   1.0000   1.0000   1.0000
     0.3634   0.3634   0.3634   0.3634  -0.0000  -0.0000  -0.0000  -0.0000
    -0.0000  -0.0000  -0.0000  -0.0000  -0.0000  -0.0000

          k = 0.2500-0.5000 0.4749 (  5360 PWs)   bands (ev):

   -79.3745 -79.3745 -79.3745 -79.3745 -46.2241 -46.2241 -46.2229 -46.2229
   -32.7999 -32.7999 -32.7801 -32.7801 -32.6351 -32.6351 -32.6220 -32.6220
    -5.8111  -5.8111  -5.8100  -5.8100  -5.4501  -5.4501  -5.3531  -5.3531
     5.5797   5.5797   5.6053   5.6053   6.1681   6.1681   6.2998   6.2998
     7.0480   7.0480   7.0771   7.0771   8.5502   8.5502   8.6513   8.6513
     9.1235   9.1235   9.1490   9.1490  10.2259  10.2259  10.2343  10.2343
    12.0030  12.0030  12.0190  12.0190  12.3150  12.3150  12.5966  12.5966
    13.6222  13.6222  13.9608  13.9608  15.7527  15.7527  15.8077  15.8077
    17.6141  17.6141  17.6841  17.6841  22.6622  22.6674

     occupation numbers 
     1.0000   1.0000   1.0000   1.0000   1.0000   1.0000   1.0000   1.0000
     1.0000   1.0000   1.0000   1.0000   1.0000   1.0000   1.0000   1.0000
     1.0000   1.0000   1.0000   1.0000   1.0000   1.0000   1.0000   1.0000
     1.0000   1.0000   1.0000   1.0000   1.0000   1.0000   1.0000   1.0000
     1.0000   1.0000   1.0000   1.0000   1.0000   1.0000   1.0000   1.0000
     1.0000   1.0000   1.0000   1.0000   1.0000   1.0000   1.0000   1.0000
     1.0000   1.0000   1.0000   1.0000   1.0000   1.0000   1.0000   1.0000
     1.0000   1.0000  -0.0299  -0.0299  -0.0000  -0.0000  -0.0000  -0.0000
    -0.0000  -0.0000  -0.0000  -0.0000  -0.0000  -0.0000

          k =-0.5000-0.5000 0.0000 (  5412 PWs)   bands (ev):

   -79.3762 -79.3762 -79.3762 -79.3762 -46.2152 -46.2152 -46.2152 -46.2152
   -32.7528 -32.7528 -32.7528 -32.7528 -32.6128 -32.6128 -32.6128 -32.6128
    -6.4066  -6.4066  -6.4066  -6.4066  -5.0301  -5.0301  -5.0301  -5.0301
     4.4038   4.4038   4.4038   4.4038   6.0158   6.0158   6.0158   6.0158
     8.7393   8.7393   8.7393   8.7393   8.7829   8.7829   8.7829   8.7829
     9.6005   9.6005   9.6005   9.6005  10.3660  10.3660  10.3660  10.3660
    11.1244  11.1244  11.1244  11.1244  11.7504  11.7504  11.7504  11.7504
    14.0561  14.0561  14.0561  14.0561  16.2414  16.2414  16.2414  16.2414
    17.9325  17.9325  17.9325  17.9325  22.3978  22.8082

     occupation numbers 
     1.0000   1.0000   1.0000   1.0000   1.0000   1.0000   1.0000   1.0000
     1.0000   1.0000   1.0000   1.0000   1.0000   1.0000   1.0000   1.0000
     1.0000   1.0000   1.0000   1.0000   1.0000   1.0000   1.0000   1.0000
     1.0000   1.0000   1.0000   1.0000   1.0000   1.0000   1.0000   1.0000
     1.0000   1.0000   1.0000   1.0000   1.0000   1.0000   1.0000   1.0000
     1.0000   1.0000   1.0000   1.0000   1.0000   1.0000   1.0000   1.0000
     1.0000   1.0000   1.0000   1.0000   1.0000   1.0000   1.0000   1.0000
    -0.0002  -0.0002  -0.0002  -0.0002  -0.0000  -0.0000  -0.0000  -0.0000
    -0.0000  -0.0000  -0.0000  -0.0000  -0.0000  -0.0000

          k =-0.5000-0.5000 0.4749 (  5340 PWs)   bands (ev):

   -79.3745 -79.3745 -79.3745 -79.3745 -46.2235 -46.2235 -46.2235 -46.2235
   -32.7903 -32.7903 -32.7903 -32.7903 -32.6285 -32.6285 -32.6285 -32.6285
    -5.8137  -5.8137  -5.8137  -5.8137  -5.3824  -5.3824  -5.3824  -5.3824
     5.3517   5.3517   5.3517   5.3517   6.1450   6.1450   6.1450   6.1450
     7.2230   7.2230   7.2230   7.2230   8.6015   8.6015   8.6015   8.6015
     9.3867   9.3867   9.3867   9.3867  10.2746  10.2746  10.2746  10.2746
    11.9790  11.9790  11.9790  11.9790  12.8681  12.8681  12.8681  12.8681
    13.2976  13.2976  13.2976  13.2976  16.3569  16.3569  16.3569  16.3569
    17.0603  17.0603  17.0603  17.0603  23.0715  23.0715

     occupation numbers 
     1.0000   1.0000   1.0000   1.0000   1.0000   1.0000   1.0000   1.0000
     1.0000   1.0000   1.0000   1.0000   1.0000   1.0000   1.0000   1.0000
     1.0000   1.0000   1.0000   1.0000   1.0000   1.0000   1.0000   1.0000
     1.0000   1.0000   1.0000   1.0000   1.0000   1.0000   1.0000   1.0000
     1.0000   1.0000   1.0000   1.0000   1.0000   1.0000   1.0000   1.0000
     1.0000   1.0000   1.0000   1.0000   1.0000   1.0000   1.0000   1.0000
     1.0000   1.0000   1.0000   1.0000   1.0000   1.0000   1.0000   1.0000
     1.0000   1.0000   1.0000   1.0000  -0.0000  -0.0000  -0.0000  -0.0000
    -0.0000  -0.0000  -0.0000  -0.0000  -0.0000  -0.0000

     the Fermi energy is    13.8623 ev

!    total energy              =    -553.07589721 Ry
     estimated scf accuracy    <          1.5E-10 Ry
     smearing contrib. (-TS)   =      -0.00014509 Ry
     internal energy E=F+TS    =    -553.07575212 Ry

     The total energy is F=E-TS. E is the sum of the following terms:
     one-electron contribution =    -190.92292254 Ry
     hartree contribution      =     122.75247912 Ry
     xc contribution           =     -69.91929818 Ry
     ewald contribution        =    -414.98601052 Ry

     convergence has been achieved in  10 iterations

     Forces acting on atoms (cartesian axes, Ry/au):

     atom    1 type  2   force =     0.00000000    0.00000000    0.00000000
     atom    2 type  2   force =     0.00000000    0.00000000    0.00000000
     atom    3 type  1   force =     0.00332391   -0.00332391   -0.00000000
     atom    4 type  1   force =    -0.00332391   -0.00332391   -0.00000000
     atom    5 type  1   force =     0.00332391    0.00332391   -0.00000000
     atom    6 type  1   force =    -0.00332391    0.00332391   -0.00000000
     The non-local contrib.  to forces
     atom    1 type  2   force =     0.00000000    0.00000000    0.00000000
     atom    2 type  2   force =     0.00000000    0.00000000    0.00000000
     atom    3 type  1   force =    -0.04993066    0.04993066   -0.00000000
     atom    4 type  1   force =     0.04993066    0.04993066    0.00000000
     atom    5 type  1   force =    -0.04993066   -0.04993066    0.00000000
     atom    6 type  1   force =     0.04993066   -0.04993066   -0.00000000
     The ionic contribution  to forces
     atom    1 type  2   force =    -0.00000000   -0.00000000    0.00000000
     atom    2 type  2   force =     0.00000000    0.00000000   -0.00000000
     atom    3 type  1   force =     1.42937233   -1.42937233    0.00000000
     atom    4 type  1   force =    -1.42937233   -1.42937233   -0.00000000
     atom    5 type  1   force =     1.42937233    1.42937233   -0.00000000
     atom    6 type  1   force =    -1.42937233    1.42937233    0.00000000
     The local contribution  to forces
     atom    1 type  2   force =     0.00000000    0.00000000    0.00000000
     atom    2 type  2   force =     0.00000000    0.00000000    0.00000000
     atom    3 type  1   force =    -1.37611679    1.37611679    0.00000000
     atom    4 type  1   force =     1.37611679    1.37611679    0.00000000
     atom    5 type  1   force =    -1.37611679   -1.37611679    0.00000000
     atom    6 type  1   force =     1.37611679   -1.37611679    0.00000000
     The core correction contribution to forces
     atom    1 type  2   force =     0.00000000    0.00000000    0.00000000
     atom    2 type  2   force =     0.00000000    0.00000000    0.00000000
     atom    3 type  1   force =     0.00000000    0.00000000    0.00000000
     atom    4 type  1   force =     0.00000000    0.00000000    0.00000000
     atom    5 type  1   force =     0.00000000    0.00000000    0.00000000
     atom    6 type  1   force =     0.00000000    0.00000000    0.00000000
     The Hubbard contrib.    to forces
     atom    1 type  2   force =     0.00000000    0.00000000    0.00000000
     atom    2 type  2   force =     0.00000000    0.00000000    0.00000000
     atom    3 type  1   force =     0.00000000    0.00000000    0.00000000
     atom    4 type  1   force =     0.00000000    0.00000000    0.00000000
     atom    5 type  1   force =     0.00000000    0.00000000    0.00000000
     atom    6 type  1   force =     0.00000000    0.00000000    0.00000000
     The SCF correction term to forces
     atom    1 type  2   force =    -0.00000000    0.00000000   -0.00000000
     atom    2 type  2   force =     0.00000000   -0.00000000   -0.00000000
     atom    3 type  1   force =    -0.00000098    0.00000098    0.00000000
     atom    4 type  1   force =     0.00000098    0.00000098    0.00000000
     atom    5 type  1   force =    -0.00000098   -0.00000098    0.00000000
     atom    6 type  1   force =     0.00000098   -0.00000098    0.00000000

     Total force =     0.009401     Total SCF correction =     0.000003


     Computing stress (Cartesian axis) and pressure

          total   stress  (Ry/bohr**3)                   (kbar)     P=      -14.73
  -0.00011234   0.00000000   0.00000000          -16.53        0.00        0.00
   0.00000000  -0.00011234   0.00000000            0.00      -16.53        0.00
   0.00000000   0.00000000  -0.00007567            0.00        0.00      -11.13

     kinetic stress (kbar)  48453.76      0.00      0.00
                                0.00  48453.76      0.00
                                0.00      0.00  47550.18

     local   stress (kbar) -12684.40     -0.00     -0.00
                               -0.00 -12684.40     -0.00
                               -0.00     -0.00 -44413.38

     nonloc. stress (kbar)  14526.39      0.00      0.00
                                0.00  14526.39      0.00
                                0.00      0.00  14741.54

     hartree stress (kbar)   9612.63     -0.00      0.00
                               -0.00   9612.63      0.00
                                0.00      0.00  21382.00

     exc-cor stress (kbar)  -7288.70      0.00     -0.00
                                0.00  -7288.70     -0.00
                               -0.00     -0.00  -7264.01

     corecor stress (kbar)      0.00      0.00      0.00
                                0.00      0.00      0.00
                                0.00      0.00      0.00

     ewald   stress (kbar) -52636.21     -0.00     -0.00
                               -0.00 -52636.21     -0.00
                               -0.00     -0.00 -32007.45

     hubbard stress (kbar)      0.00      0.00      0.00
                                0.00      0.00      0.00
                                0.00      0.00      0.00

     DFT-D   stress (kbar)      0.00      0.00      0.00
                                0.00      0.00      0.00
                                0.00      0.00      0.00

     XDM     stress (kbar)      0.00      0.00      0.00
                                0.00      0.00      0.00
                                0.00      0.00      0.00

     dft-nl  stress (kbar)      0.00      0.00      0.00
                                0.00      0.00      0.00
                                0.00      0.00      0.00

     TS-vdW  stress (kbar)      0.00      0.00      0.00
                                0.00      0.00      0.00
                                0.00      0.00      0.00


                                0.00      0.00      0.00
                                0.00      0.00      0.00


                                0.00      0.00      0.00


     Writing all to output data dir tmp/espresso.save/
 
     init_run     :      1.27s CPU      0.68s WALL (       1 calls)
     electrons    :     41.14s CPU     21.10s WALL (       1 calls)
     forces       :      2.13s CPU      1.09s WALL (       1 calls)
     stress       :      3.07s CPU      1.56s WALL (       1 calls)

     Called by init_run:
     wfcinit      :      1.21s CPU      0.62s WALL (       1 calls)
     wfcinit:atom :      0.00s CPU      0.00s WALL (      12 calls)
     wfcinit:wfcr :      1.17s CPU      0.60s WALL (      12 calls)
     potinit      :      0.02s CPU      0.01s WALL (       1 calls)
     hinit0       :      0.03s CPU      0.03s WALL (       1 calls)

     Called by electrons:
     c_bands      :     37.57s CPU     19.25s WALL (      10 calls)
     sum_band     :      3.42s CPU      1.76s WALL (      10 calls)
     v_of_rho     :      0.05s CPU      0.03s WALL (      11 calls)
     v_h          :      0.00s CPU      0.00s WALL (      11 calls)
     v_xc         :      0.05s CPU      0.02s WALL (      11 calls)
     mix_rho      :      0.05s CPU      0.02s WALL (      10 calls)

     Called by c_bands:
     init_us_2    :      0.11s CPU      0.06s WALL (     276 calls)
     init_us_2:cp :      0.11s CPU      0.06s WALL (     276 calls)
     cegterg      :     34.67s CPU     17.77s WALL (     120 calls)

     Called by sum_band:
     sum_band:wei :      0.02s CPU      0.01s WALL (      10 calls)
     sum_band:loo :      3.38s CPU      1.74s WALL (      10 calls)
     sum_band:buf :      0.02s CPU      0.01s WALL (     120 calls)
     sum_band:ini :      0.04s CPU      0.02s WALL (     120 calls)

     Called by *egterg:
     cdiaghg      :      4.95s CPU      2.52s WALL (     389 calls)
     cegterg:over :      2.15s CPU      1.10s WALL (     269 calls)
     cegterg:upda :      1.70s CPU      0.87s WALL (     269 calls)
     cegterg:last :      2.98s CPU      1.51s WALL (     240 calls)
     cdiaghg:chol :      0.23s CPU      0.12s WALL (     389 calls)
     cdiaghg:inve :      0.04s CPU      0.02s WALL (     389 calls)
     cdiaghg:para :      0.52s CPU      0.26s WALL (     778 calls)
     h_psi        :     23.19s CPU     11.92s WALL (     401 calls)
     g_psi        :      0.03s CPU      0.02s WALL (     269 calls)

     Called by h_psi:
     h_psi:calbec :      2.83s CPU      1.48s WALL (     401 calls)
     vloc_psi     :     16.28s CPU      8.37s WALL (     401 calls)
     add_vuspsi   :      4.03s CPU      2.05s WALL (     401 calls)

     General routines
     calbec       :      3.56s CPU      1.86s WALL (     461 calls)
     fft          :      0.06s CPU      0.03s WALL (     150 calls)
     ffts         :      0.01s CPU      0.01s WALL (      40 calls)
     fftw         :     18.40s CPU      9.47s WALL (  103840 calls)
 
     Parallel routines
 
     PWSCF        :     49.12s CPU     25.67s WALL

 
   This run was terminated on:   9:49:48  10Apr2022            

=------------------------------------------------------------------------------=
   JOB DONE.
=------------------------------------------------------------------------------=
