
     Program PWSCF v.7.0 starts on 10Apr2022 at  9:38: 1 

     This program is part of the open-source Quantum ESPRESSO suite
     for quantum simulation of materials; please cite
         "P. Giannozzi et al., J. Phys.:Condens. Matter 21 395502 (2009);
         "P. Giannozzi et al., J. Phys.:Condens. Matter 29 465901 (2017);
         "P. Giannozzi et al., J. Chem. Phys. 152 154105 (2020);
          URL http://www.quantum-espresso.org", 
     in publications or presentations arising from this work. More details at
     http://www.quantum-espresso.org/quote

     Parallel version (MPI & OpenMP), running on      64 processor cores
     Number of MPI processes:                32
     Threads/MPI process:                     2

     MPI processes distributed on     1 nodes
     R & G space division:  proc/nbgrp/npool/nimage =      32
     231597 MiB available memory on the printing compute node when the environment starts
 
     Reading input from kpoints_661.pwi
Warning: card &CELL ignored
Warning: card / ignored

     Current dimensions of program PWSCF are:
     Max number of different atomic species (ntypx) = 10
     Max number of k-points (npk) =  40000
     Max angular momentum in pseudopotentials (lmaxx) =  4

     Subspace diagonalization in iterative solution of the eigenvalue problem:
     one sub-group per band group will be used
     scalapack distributed-memory algorithm (size of sub-group:  5*  5 procs)

 
     Parallelization info
     --------------------
     sticks:   dense  smooth     PW     G-vecs:    dense   smooth      PW
     Min          58      58     16                 1342     1342     198
     Max          59      59     17                 1345     1345     201
     Sum        1885    1885    517                42999    42999    6351
 
     Using Slab Decomposition
 

     Title: 
     IrO2 Unit Cell                                                             


     bravais-lattice index     =            6
     lattice parameter (alat)  =       8.5888  a.u.
     unit-cell volume          =     444.6868 (a.u.)^3
     number of atoms/cell      =            6
     number of atomic types    =            2
     number of electrons       =        58.00
     number of Kohn-Sham states=           70
     kinetic-energy cutoff     =      80.0000  Ry
     charge density cutoff     =     320.0000  Ry
     scf convergence threshold =      1.0E-09
     mixing beta               =       0.7000
     number of iterations used =            8  plain     mixing
     Exchange-correlation= PBE
                           (   1   4   3   4   0   0   0)
     Non magnetic calculation with spin-orbit


     celldm(1)=   8.588800  celldm(2)=   0.000000  celldm(3)=   0.701870
     celldm(4)=   0.000000  celldm(5)=   0.000000  celldm(6)=   0.000000

     crystal axes: (cart. coord. in units of alat)
               a(1) = (   1.000000   0.000000   0.000000 )  
               a(2) = (   0.000000   1.000000   0.000000 )  
               a(3) = (   0.000000   0.000000   0.701870 )  

     reciprocal axes: (cart. coord. in units 2 pi/alat)
               b(1) = (  1.000000  0.000000  0.000000 )  
               b(2) = (  0.000000  1.000000  0.000000 )  
               b(3) = (  0.000000  0.000000  1.424765 )  


     PseudoPot. # 1 for O  read from file:
     ../../XX_PSEUDO/O_ONCV_PBE_fr.upf
     MD5 check sum: 59c925217d3b58c6d762355590b68b09
     Pseudo is Norm-conserving, Zval =  6.0
     Generated using ONCVPSP code by D. R. Hamann
     Using radial grid of  936 points,  6 beta functions with: 
                l(1) =   0
                l(2) =   0
                l(3) =   1
                l(4) =   1
                l(5) =   1
                l(6) =   1

     PseudoPot. # 2 for Ir read from file:
     ../../XX_PSEUDO/Ir_ONCV_PBE_fr.upf
     MD5 check sum: 924e909c4146afa09f62ee3401806954
     Pseudo is Norm-conserving, Zval = 17.0
     Generated using ONCVPSP code by D. R. Hamann
     Using radial grid of 1310 points, 14 beta functions with: 
                l(1) =   0
                l(2) =   0
                l(3) =   1
                l(4) =   1
                l(5) =   1
                l(6) =   1
                l(7) =   2
                l(8) =   2
                l(9) =   2
               l(10) =   2
               l(11) =   3
               l(12) =   3
               l(13) =   3
               l(14) =   3

     atomic species   valence    mass     pseudopotential
        O              6.00    15.99900     O ( 1.00)
        Ir            17.00   192.21700     Ir( 1.00)

     16 Sym. Ops., with inversion, found ( 8 have fractional translation)


                                    s                        frac. trans.

      isym =  1     identity                                     

 cryst.   s( 1) = (     1          0          0      )
                  (     0          1          0      )
                  (     0          0          1      )

 cart.    s( 1) = (  1.0000000  0.0000000  0.0000000 )
                  (  0.0000000  1.0000000  0.0000000 )
                  (  0.0000000  0.0000000  1.0000000 )


      isym =  2     180 deg rotation - cart. axis [0,0,1]        

 cryst.   s( 2) = (    -1          0          0      )
                  (     0         -1          0      )
                  (     0          0          1      )

 cart.    s( 2) = ( -1.0000000  0.0000000  0.0000000 )
                  (  0.0000000 -1.0000000  0.0000000 )
                  (  0.0000000  0.0000000  1.0000000 )


      isym =  3     180 deg rotation - cart. axis [0,1,0]        

 cryst.   s( 3) = (    -1          0          0      )    f =(  0.5000000 )
                  (     0          1          0      )       ( -0.5000000 )
                  (     0          0         -1      )       (  0.5000000 )

 cart.    s( 3) = ( -1.0000000  0.0000000  0.0000000 )    f =(  0.5000000 )
                  (  0.0000000  1.0000000  0.0000000 )       ( -0.5000000 )
                  (  0.0000000  0.0000000 -1.0000000 )       (  0.3509351 )


      isym =  4     180 deg rotation - cart. axis [1,0,0]        

 cryst.   s( 4) = (     1          0          0      )    f =( -0.5000000 )
                  (     0         -1          0      )       (  0.5000000 )
                  (     0          0         -1      )       (  0.5000000 )

 cart.    s( 4) = (  1.0000000  0.0000000  0.0000000 )    f =( -0.5000000 )
                  (  0.0000000 -1.0000000  0.0000000 )       (  0.5000000 )
                  (  0.0000000  0.0000000 -1.0000000 )       (  0.3509351 )


      isym =  5     180 deg rotation - cart. axis [1,1,0]        

 cryst.   s( 5) = (     0          1          0      )
                  (     1          0          0      )
                  (     0          0         -1      )

 cart.    s( 5) = (  0.0000000  1.0000000  0.0000000 )
                  (  1.0000000  0.0000000  0.0000000 )
                  (  0.0000000  0.0000000 -1.0000000 )


      isym =  6     180 deg rotation - cart. axis [1,-1,0]       

 cryst.   s( 6) = (     0         -1          0      )
                  (    -1          0          0      )
                  (     0          0         -1      )

 cart.    s( 6) = (  0.0000000 -1.0000000  0.0000000 )
                  ( -1.0000000  0.0000000  0.0000000 )
                  (  0.0000000  0.0000000 -1.0000000 )


      isym =  7      90 deg rotation - cart. axis [0,0,-1]       

 cryst.   s( 7) = (     0         -1          0      )    f =( -0.5000000 )
                  (     1          0          0      )       (  0.5000000 )
                  (     0          0          1      )       ( -0.5000000 )

 cart.    s( 7) = (  0.0000000  1.0000000  0.0000000 )    f =( -0.5000000 )
                  ( -1.0000000  0.0000000  0.0000000 )       (  0.5000000 )
                  (  0.0000000  0.0000000  1.0000000 )       ( -0.3509351 )


      isym =  8      90 deg rotation - cart. axis [0,0,1]        

 cryst.   s( 8) = (     0          1          0      )    f =(  0.5000000 )
                  (    -1          0          0      )       ( -0.5000000 )
                  (     0          0          1      )       ( -0.5000000 )

 cart.    s( 8) = (  0.0000000 -1.0000000  0.0000000 )    f =(  0.5000000 )
                  (  1.0000000  0.0000000  0.0000000 )       ( -0.5000000 )
                  (  0.0000000  0.0000000  1.0000000 )       ( -0.3509351 )


      isym =  9     inversion                                    

 cryst.   s( 9) = (    -1          0          0      )
                  (     0         -1          0      )
                  (     0          0         -1      )

 cart.    s( 9) = ( -1.0000000  0.0000000  0.0000000 )
                  (  0.0000000 -1.0000000  0.0000000 )
                  (  0.0000000  0.0000000 -1.0000000 )


      isym = 10     inv. 180 deg rotation - cart. axis [0,0,1]   

 cryst.   s(10) = (     1          0          0      )
                  (     0          1          0      )
                  (     0          0         -1      )

 cart.    s(10) = (  1.0000000  0.0000000  0.0000000 )
                  (  0.0000000  1.0000000  0.0000000 )
                  (  0.0000000  0.0000000 -1.0000000 )


      isym = 11     inv. 180 deg rotation - cart. axis [0,1,0]   

 cryst.   s(11) = (     1          0          0      )    f =( -0.5000000 )
                  (     0         -1          0      )       (  0.5000000 )
                  (     0          0          1      )       ( -0.5000000 )

 cart.    s(11) = (  1.0000000  0.0000000  0.0000000 )    f =( -0.5000000 )
                  (  0.0000000 -1.0000000  0.0000000 )       (  0.5000000 )
                  (  0.0000000  0.0000000  1.0000000 )       ( -0.3509351 )


      isym = 12     inv. 180 deg rotation - cart. axis [1,0,0]   

 cryst.   s(12) = (    -1          0          0      )    f =(  0.5000000 )
                  (     0          1          0      )       ( -0.5000000 )
                  (     0          0          1      )       ( -0.5000000 )

 cart.    s(12) = ( -1.0000000  0.0000000  0.0000000 )    f =(  0.5000000 )
                  (  0.0000000  1.0000000  0.0000000 )       ( -0.5000000 )
                  (  0.0000000  0.0000000  1.0000000 )       ( -0.3509351 )


      isym = 13     inv. 180 deg rotation - cart. axis [1,1,0]   

 cryst.   s(13) = (     0         -1          0      )
                  (    -1          0          0      )
                  (     0          0          1      )

 cart.    s(13) = (  0.0000000 -1.0000000  0.0000000 )
                  ( -1.0000000  0.0000000  0.0000000 )
                  (  0.0000000  0.0000000  1.0000000 )


      isym = 14     inv. 180 deg rotation - cart. axis [1,-1,0]  

 cryst.   s(14) = (     0          1          0      )
                  (     1          0          0      )
                  (     0          0          1      )

 cart.    s(14) = (  0.0000000  1.0000000  0.0000000 )
                  (  1.0000000  0.0000000  0.0000000 )
                  (  0.0000000  0.0000000  1.0000000 )


      isym = 15     inv.  90 deg rotation - cart. axis [0,0,-1]  

 cryst.   s(15) = (     0          1          0      )    f =(  0.5000000 )
                  (    -1          0          0      )       ( -0.5000000 )
                  (     0          0         -1      )       (  0.5000000 )

 cart.    s(15) = (  0.0000000 -1.0000000  0.0000000 )    f =(  0.5000000 )
                  (  1.0000000  0.0000000  0.0000000 )       ( -0.5000000 )
                  (  0.0000000  0.0000000 -1.0000000 )       (  0.3509351 )


      isym = 16     inv.  90 deg rotation - cart. axis [0,0,1]   

 cryst.   s(16) = (     0         -1          0      )    f =( -0.5000000 )
                  (     1          0          0      )       (  0.5000000 )
                  (     0          0         -1      )       (  0.5000000 )

 cart.    s(16) = (  0.0000000  1.0000000  0.0000000 )    f =( -0.5000000 )
                  ( -1.0000000  0.0000000  0.0000000 )       (  0.5000000 )
                  (  0.0000000  0.0000000 -1.0000000 )       (  0.3509351 )


     double point group D_4h(4/mmm)
     there are 14 classes and  4 irreducible representations
     the character table:

       E     -E    2C4   -2C4   C2    2C2' 2C2'' i     -i    2S4   -2S4   s_h 
                               -C2   -2C2' -2C2'                         -s_h 
G_6+   2.00 -2.00  1.41 -1.41  0.00  0.00  0.00  2.00 -2.00  1.41 -1.41  0.00
G_7+   2.00 -2.00 -1.41  1.41  0.00  0.00  0.00  2.00 -2.00 -1.41  1.41  0.00
G_6-   2.00 -2.00  1.41 -1.41  0.00  0.00  0.00 -2.00  2.00 -1.41  1.41  0.00
G_7-   2.00 -2.00 -1.41  1.41  0.00  0.00  0.00 -2.00  2.00  1.41 -1.41  0.00

        2s_v  2s_d
       -2s_v -2s_d
G_6+   0.00  0.00
G_7+   0.00  0.00
G_6-   0.00  0.00
G_7-   0.00  0.00

     the symmetry operations in each class and the name of the first element:

     E             1
          identity                                               
     -E           -1
          identity E                                             
     2C4           7    8
           90 deg rotation - cart. axis [0,0,-1]                 
     -2C4         -7   -8
           90 deg rotation - cart. axis [0,0,-1] E               
      C2  -C2      2   -2
          180 deg rotation - cart. axis [0,0,1]                  
      2C2'-2C2'    3   -3    4   -4
          180 deg rotation - cart. axis [0,1,0]                  
     2C2''-2C2'    5   -5   -6    6
          180 deg rotation - cart. axis [1,1,0]                  
     i             9
          inversion                                              
     -i           -9
          inversion E                                            
     2S4          15   16
          inv.  90 deg rotation - cart. axis [0,0,-1]            
     -2S4        -15  -16
          inv.  90 deg rotation - cart. axis [0,0,-1] E          
      s_h -s_h    10  -10
          inv. 180 deg rotation - cart. axis [0,0,1]             
      2s_v-2s_v   11  -11   12  -12
          inv. 180 deg rotation - cart. axis [0,1,0]             
      2s_d-2s_d   13  -13  -14   14
          inv. 180 deg rotation - cart. axis [1,1,0]             

   Cartesian axes

     site n.     atom                  positions (alat units)
         1           Ir  tau(   1) = (   0.0000000   0.0000000   0.0000000  )
         2           Ir  tau(   2) = (   0.5000000   0.5000000   0.3509351  )
         3           O   tau(   3) = (   0.1916000   0.8084000   0.3509351  )
         4           O   tau(   4) = (   0.3084000   0.3084000   0.0000000  )
         5           O   tau(   5) = (   0.6916000   0.6916000   0.0000000  )
         6           O   tau(   6) = (   0.8084000   0.1916000   0.3509351  )

   Crystallographic axes

     site n.     atom                  positions (cryst. coord.)
         1           Ir  tau(   1) = (  0.0000000  0.0000000  0.0000000  )
         2           Ir  tau(   2) = (  0.5000000  0.5000000  0.5000000  )
         3           O   tau(   3) = (  0.1916000  0.8084000  0.5000000  )
         4           O   tau(   4) = (  0.3084000  0.3084000  0.0000000  )
         5           O   tau(   5) = (  0.6916000  0.6916000  0.0000000  )
         6           O   tau(   6) = (  0.8084000  0.1916000  0.5000000  )

     number of k points=    10  Methfessel-Paxton smearing, width (Ry)=  0.0050
                       cart. coord. in units 2pi/alat
        k(    1) = (   0.0000000   0.0000000   0.0000000), wk =   0.0277778
        k(    2) = (   0.0000000   0.1666667   0.0000000), wk =   0.1111111
        k(    3) = (   0.0000000   0.3333333   0.0000000), wk =   0.1111111
        k(    4) = (   0.0000000  -0.5000000   0.0000000), wk =   0.0555556
        k(    5) = (   0.1666667   0.1666667   0.0000000), wk =   0.1111111
        k(    6) = (   0.1666667   0.3333333   0.0000000), wk =   0.2222222
        k(    7) = (   0.1666667  -0.5000000   0.0000000), wk =   0.1111111
        k(    8) = (   0.3333333   0.3333333   0.0000000), wk =   0.1111111
        k(    9) = (   0.3333333  -0.5000000   0.0000000), wk =   0.1111111
        k(   10) = (  -0.5000000  -0.5000000   0.0000000), wk =   0.0277778

                       cryst. coord.
        k(    1) = (   0.0000000   0.0000000   0.0000000), wk =   0.0277778
        k(    2) = (   0.0000000   0.1666667   0.0000000), wk =   0.1111111
        k(    3) = (   0.0000000   0.3333333   0.0000000), wk =   0.1111111
        k(    4) = (   0.0000000  -0.5000000   0.0000000), wk =   0.0555556
        k(    5) = (   0.1666667   0.1666667   0.0000000), wk =   0.1111111
        k(    6) = (   0.1666667   0.3333333   0.0000000), wk =   0.2222222
        k(    7) = (   0.1666667  -0.5000000   0.0000000), wk =   0.1111111
        k(    8) = (   0.3333333   0.3333333   0.0000000), wk =   0.1111111
        k(    9) = (   0.3333333  -0.5000000   0.0000000), wk =   0.1111111
        k(   10) = (  -0.5000000  -0.5000000   0.0000000), wk =   0.0277778

     Dense  grid:    42999 G-vectors     FFT dimensions: (  50,  50,  36)

     Dynamical RAM for                 wfc:       0.36 MB

     Dynamical RAM for     wfc (w. buffer):       3.92 MB

     Dynamical RAM for           str. fact:       0.04 MB

     Dynamical RAM for           local pot:       0.00 MB

     Dynamical RAM for          nlocal pot:       0.46 MB

     Dynamical RAM for                qrad:      20.10 MB

     Dynamical RAM for          rho,v,vnew:       0.70 MB

     Dynamical RAM for               rhoin:       0.23 MB

     Dynamical RAM for            rho*nmix:       1.31 MB

     Dynamical RAM for           G-vectors:       0.09 MB

     Dynamical RAM for          h,s,v(r/c):       0.04 MB

     Dynamical RAM for          <psi|beta>:       0.38 MB

     Dynamical RAM for                 psi:       0.71 MB

     Dynamical RAM for                hpsi:       0.71 MB

     Dynamical RAM for      wfcinit/wfcrot:       0.67 MB

     Estimated static dynamical RAM per process >      25.91 MB

     Estimated max dynamical RAM per process >      29.08 MB

     Estimated total dynamical RAM >     930.41 MB

     Initial potential from superposition of free atoms

     starting charge      57.9997, renormalised to      58.0000
     Starting wfcs are   72 randomized atomic wfcs

     total cpu time spent up to now is        0.7 secs

     Self-consistent Calculation

     iteration #  1     ecut=    80.00 Ry     beta= 0.70
     Davidson diagonalization with overlap

---- Real-time Memory Report at c_bands before calling an iterative solver
            75 MiB given to the printing process from OS
             0 MiB allocation reported by mallinfo(arena+hblkhd)
        230189 MiB available memory on the node where the printing process lives
------------------
     ethr =  1.00E-02,  avg # of iterations =  2.3

     total cpu time spent up to now is        2.4 secs

     total energy              =    -552.54809280 Ry
     estimated scf accuracy    <       1.17014636 Ry

     iteration #  2     ecut=    80.00 Ry     beta= 0.70
     Davidson diagonalization with overlap

---- Real-time Memory Report at c_bands before calling an iterative solver
            82 MiB given to the printing process from OS
             0 MiB allocation reported by mallinfo(arena+hblkhd)
        230024 MiB available memory on the node where the printing process lives
------------------
     ethr =  2.02E-03,  avg # of iterations =  2.0
     Minimization algorithm failed to find Fermi energy: reverting to bisection
     Possible cause: smearing is larger than the electronic band-gap.

     total cpu time spent up to now is        4.2 secs

     total energy              =    -552.50515295 Ry
     estimated scf accuracy    <       3.54267459 Ry

     iteration #  3     ecut=    80.00 Ry     beta= 0.70
     Davidson diagonalization with overlap

---- Real-time Memory Report at c_bands before calling an iterative solver
            83 MiB given to the printing process from OS
             0 MiB allocation reported by mallinfo(arena+hblkhd)
        230001 MiB available memory on the node where the printing process lives
------------------
     ethr =  2.02E-03,  avg # of iterations =  2.0

     total cpu time spent up to now is        5.9 secs

     total energy              =    -553.16177508 Ry
     estimated scf accuracy    <       0.02481871 Ry

     iteration #  4     ecut=    80.00 Ry     beta= 0.70
     Davidson diagonalization with overlap

---- Real-time Memory Report at c_bands before calling an iterative solver
            85 MiB given to the printing process from OS
             0 MiB allocation reported by mallinfo(arena+hblkhd)
        229991 MiB available memory on the node where the printing process lives
------------------
     ethr =  4.28E-05,  avg # of iterations =  2.3

     total cpu time spent up to now is        7.8 secs

     total energy              =    -553.16581001 Ry
     estimated scf accuracy    <       0.00262827 Ry

     iteration #  5     ecut=    80.00 Ry     beta= 0.70
     Davidson diagonalization with overlap

---- Real-time Memory Report at c_bands before calling an iterative solver
            86 MiB given to the printing process from OS
             0 MiB allocation reported by mallinfo(arena+hblkhd)
        229988 MiB available memory on the node where the printing process lives
------------------
     ethr =  4.53E-06,  avg # of iterations =  2.3

     total cpu time spent up to now is        9.3 secs

     total energy              =    -553.16614514 Ry
     estimated scf accuracy    <       0.00010356 Ry

     iteration #  6     ecut=    80.00 Ry     beta= 0.70
     Davidson diagonalization with overlap

---- Real-time Memory Report at c_bands before calling an iterative solver
            86 MiB given to the printing process from OS
             0 MiB allocation reported by mallinfo(arena+hblkhd)
        229983 MiB available memory on the node where the printing process lives
------------------
     ethr =  1.79E-07,  avg # of iterations =  2.0

     total cpu time spent up to now is       11.0 secs

     total energy              =    -553.16615929 Ry
     estimated scf accuracy    <       0.00000520 Ry

     iteration #  7     ecut=    80.00 Ry     beta= 0.70
     Davidson diagonalization with overlap

---- Real-time Memory Report at c_bands before calling an iterative solver
            87 MiB given to the printing process from OS
             0 MiB allocation reported by mallinfo(arena+hblkhd)
        229980 MiB available memory on the node where the printing process lives
------------------
     ethr =  8.97E-09,  avg # of iterations =  2.9

     total cpu time spent up to now is       12.9 secs

     total energy              =    -553.16616090 Ry
     estimated scf accuracy    <       0.00000056 Ry

     iteration #  8     ecut=    80.00 Ry     beta= 0.70
     Davidson diagonalization with overlap

---- Real-time Memory Report at c_bands before calling an iterative solver
            90 MiB given to the printing process from OS
             0 MiB allocation reported by mallinfo(arena+hblkhd)
        229942 MiB available memory on the node where the printing process lives
------------------
     ethr =  9.71E-10,  avg # of iterations =  2.1

     total cpu time spent up to now is       14.6 secs

     total energy              =    -553.16616102 Ry
     estimated scf accuracy    <       0.00000003 Ry

     iteration #  9     ecut=    80.00 Ry     beta= 0.70
     Davidson diagonalization with overlap

---- Real-time Memory Report at c_bands before calling an iterative solver
            90 MiB given to the printing process from OS
             0 MiB allocation reported by mallinfo(arena+hblkhd)
        229921 MiB available memory on the node where the printing process lives
------------------
     ethr =  4.96E-11,  avg # of iterations =  2.1

     total cpu time spent up to now is       16.2 secs

     total energy              =    -553.16616103 Ry
     estimated scf accuracy    <          3.7E-09 Ry

     iteration # 10     ecut=    80.00 Ry     beta= 0.70
     Davidson diagonalization with overlap

---- Real-time Memory Report at c_bands before calling an iterative solver
            90 MiB given to the printing process from OS
             0 MiB allocation reported by mallinfo(arena+hblkhd)
        229910 MiB available memory on the node where the printing process lives
------------------
     ethr =  6.40E-12,  avg # of iterations =  2.2

     total cpu time spent up to now is       17.9 secs

     End of self-consistent calculation

          k = 0.0000 0.0000 0.0000 (  5409 PWs)   bands (ev):

   -79.3339 -79.3339 -79.3326 -79.3326 -46.1562 -46.1562 -46.1455 -46.1455
   -32.6832 -32.6832 -32.6752 -32.6752 -32.5559 -32.5559 -32.5227 -32.5227
    -7.0359  -7.0359  -5.8757  -5.8757  -4.9600  -4.9600  -4.7584  -4.7584
     4.3007   4.3007   4.5417   4.5417   6.1180   6.1180   6.2367   6.2367
     6.2786   6.2786   8.8655   8.8655   8.9655   8.9655   9.2233   9.2233
    10.4247  10.4247  11.0012  11.0012  11.0449  11.0449  11.0740  11.0740
    11.3117  11.3117  11.4694  11.4694  11.6327  11.6327  11.7736  11.7736
    12.1320  12.1320  14.7447  14.7447  15.1278  15.1278  17.7706  17.7706
    17.9442  17.9442  18.1331  18.1331  19.4964  19.4964

     occupation numbers 
     1.0000   1.0000   1.0000   1.0000   1.0000   1.0000   1.0000   1.0000
     1.0000   1.0000   1.0000   1.0000   1.0000   1.0000   1.0000   1.0000
     1.0000   1.0000   1.0000   1.0000   1.0000   1.0000   1.0000   1.0000
     1.0000   1.0000   1.0000   1.0000   1.0000   1.0000   1.0000   1.0000
     1.0000   1.0000   1.0000   1.0000   1.0000   1.0000   1.0000   1.0000
     1.0000   1.0000   1.0000   1.0000   1.0000   1.0000   1.0000   1.0000
     1.0000   1.0000   1.0000   1.0000   1.0000   1.0000   1.0000   1.0000
     1.0000   1.0000  -0.0000  -0.0000  -0.0000  -0.0000  -0.0000  -0.0000
    -0.0000  -0.0000  -0.0000  -0.0000  -0.0000  -0.0000

          k = 0.0000 0.1667 0.0000 (  5375 PWs)   bands (ev):

   -79.3338 -79.3338 -79.3327 -79.3327 -46.1555 -46.1555 -46.1462 -46.1462
   -32.6821 -32.6821 -32.6750 -32.6750 -32.5545 -32.5545 -32.5256 -32.5256
    -6.9316  -6.9316  -5.8652  -5.8652  -5.0498  -5.0498  -4.8587  -4.8587
     4.5620   4.5620   4.7396   4.7396   6.1617   6.1617   6.2599   6.2599
     6.4482   6.4482   8.5891   8.5891   8.7166   8.7166   8.8992   8.8992
     9.9408   9.9408  10.2502  10.2502  10.6936  10.6936  11.4982  11.4982
    11.5587  11.5587  11.6538  11.6538  11.8868  11.8868  12.0600  12.0600
    12.4516  12.4516  14.9065  14.9065  15.1946  15.1946  17.6680  17.6680
    17.9877  17.9877  18.4145  18.4145  19.2487  19.2487

     occupation numbers 
     1.0000   1.0000   1.0000   1.0000   1.0000   1.0000   1.0000   1.0000
     1.0000   1.0000   1.0000   1.0000   1.0000   1.0000   1.0000   1.0000
     1.0000   1.0000   1.0000   1.0000   1.0000   1.0000   1.0000   1.0000
     1.0000   1.0000   1.0000   1.0000   1.0000   1.0000   1.0000   1.0000
     1.0000   1.0000   1.0000   1.0000   1.0000   1.0000   1.0000   1.0000
     1.0000   1.0000   1.0000   1.0000   1.0000   1.0000   1.0000   1.0000
     1.0000   1.0000   1.0000   1.0000   1.0000   1.0000   1.0000   1.0000
     1.0000   1.0000  -0.0000  -0.0000  -0.0000  -0.0000  -0.0000  -0.0000
    -0.0000  -0.0000  -0.0000  -0.0000  -0.0000  -0.0000

          k = 0.0000 0.3333 0.0000 (  5372 PWs)   bands (ev):

   -79.3336 -79.3336 -79.3329 -79.3329 -46.1536 -46.1536 -46.1482 -46.1482
   -32.6794 -32.6794 -32.6751 -32.6751 -32.5501 -32.5501 -32.5332 -32.5332
    -6.6404  -6.6404  -5.9248  -5.9248  -5.2344  -5.2344  -5.0509  -5.0509
     5.1877   5.1877   5.2618   5.2618   6.2491   6.2491   6.3075   6.3075
     6.9658   6.9658   7.8202   7.8202   7.9687   7.9687   8.7095   8.7095
     9.0493   9.0493   9.3087   9.3087  10.6117  10.6117  11.1809  11.1809
    11.9951  11.9951  12.1008  12.1008  12.3173  12.3173  12.5096  12.5096
    13.0121  13.0121  14.3757  14.3757  16.2359  16.2359  17.4438  17.4438
    17.6724  17.6724  18.5384  18.5384  19.5533  19.5533

     occupation numbers 
     1.0000   1.0000   1.0000   1.0000   1.0000   1.0000   1.0000   1.0000
     1.0000   1.0000   1.0000   1.0000   1.0000   1.0000   1.0000   1.0000
     1.0000   1.0000   1.0000   1.0000   1.0000   1.0000   1.0000   1.0000
     1.0000   1.0000   1.0000   1.0000   1.0000   1.0000   1.0000   1.0000
     1.0000   1.0000   1.0000   1.0000   1.0000   1.0000   1.0000   1.0000
     1.0000   1.0000   1.0000   1.0000   1.0000   1.0000   1.0000   1.0000
     1.0000   1.0000   1.0000   1.0000   1.0000   1.0000   1.0000   1.0000
     1.0000   1.0000  -0.0000  -0.0000  -0.0000  -0.0000  -0.0000  -0.0000
    -0.0000  -0.0000  -0.0000  -0.0000  -0.0000  -0.0000

          k = 0.0000-0.5000 0.0000 (  5380 PWs)   bands (ev):

   -79.3333 -79.3333 -79.3333 -79.3333 -46.1509 -46.1509 -46.1509 -46.1509
   -32.6766 -32.6766 -32.6766 -32.6766 -32.5425 -32.5425 -32.5425 -32.5425
    -6.2402  -6.2402  -6.2402  -6.2402  -5.2200  -5.2200  -5.2200  -5.2200
     5.6427   5.6427   5.6427   5.6427   6.3272   6.3272   6.3272   6.3272
     7.3325   7.3325   7.3325   7.3325   7.9094   7.9094   7.9094   7.9094
     8.8587   8.8587   8.8587   8.8587  10.8226  10.8226  10.8226  10.8226
    12.2141  12.2141  12.2141  12.2141  12.6030  12.6030  12.6030  12.6030
    13.6957  13.6957  13.6957  13.6957  17.2937  17.2937  17.2937  17.2937
    17.5860  17.5860  17.5860  17.5860  20.8223  20.8223

     occupation numbers 
     1.0000   1.0000   1.0000   1.0000   1.0000   1.0000   1.0000   1.0000
     1.0000   1.0000   1.0000   1.0000   1.0000   1.0000   1.0000   1.0000
     1.0000   1.0000   1.0000   1.0000   1.0000   1.0000   1.0000   1.0000
     1.0000   1.0000   1.0000   1.0000   1.0000   1.0000   1.0000   1.0000
     1.0000   1.0000   1.0000   1.0000   1.0000   1.0000   1.0000   1.0000
     1.0000   1.0000   1.0000   1.0000   1.0000   1.0000   1.0000   1.0000
     1.0000   1.0000   1.0000   1.0000   1.0000   1.0000   1.0000   1.0000
     1.0035   1.0035   1.0035   1.0035  -0.0000  -0.0000  -0.0000  -0.0000
    -0.0000  -0.0000  -0.0000  -0.0000  -0.0000  -0.0000

          k = 0.1667 0.1667 0.0000 (  5363 PWs)   bands (ev):

   -79.3338 -79.3338 -79.3328 -79.3328 -46.1549 -46.1549 -46.1469 -46.1469
   -32.6816 -32.6816 -32.6750 -32.6750 -32.5531 -32.5531 -32.5279 -32.5279
    -6.8456  -6.8456  -5.8688  -5.8688  -5.1616  -5.1616  -4.8713  -4.8713
     4.4215   4.4215   5.2406   5.2406   6.1523   6.1523   6.3001   6.3001
     6.6143   6.6143   7.8795   7.8795   8.7123   8.7123   9.0256   9.0256
     9.8898   9.8898  10.1718  10.1718  10.4237  10.4237  11.2459  11.2459
    11.3847  11.3847  11.7415  11.7415  12.1211  12.1211  12.3500  12.3500
    12.7343  12.7343  14.7791  14.7791  15.3489  15.3489  17.5172  17.5172
    17.9885  17.9885  18.9123  18.9123  18.9914  18.9914

     occupation numbers 
     1.0000   1.0000   1.0000   1.0000   1.0000   1.0000   1.0000   1.0000
     1.0000   1.0000   1.0000   1.0000   1.0000   1.0000   1.0000   1.0000
     1.0000   1.0000   1.0000   1.0000   1.0000   1.0000   1.0000   1.0000
     1.0000   1.0000   1.0000   1.0000   1.0000   1.0000   1.0000   1.0000
     1.0000   1.0000   1.0000   1.0000   1.0000   1.0000   1.0000   1.0000
     1.0000   1.0000   1.0000   1.0000   1.0000   1.0000   1.0000   1.0000
     1.0000   1.0000   1.0000   1.0000   1.0000   1.0000   1.0000   1.0000
     1.0000   1.0000  -0.0000  -0.0000  -0.0000  -0.0000  -0.0000  -0.0000
    -0.0000  -0.0000  -0.0000  -0.0000  -0.0000  -0.0000

          k = 0.1667 0.3333 0.0000 (  5389 PWs)   bands (ev):

   -79.3336 -79.3336 -79.3330 -79.3330 -46.1532 -46.1532 -46.1486 -46.1486
   -32.6798 -32.6798 -32.6755 -32.6755 -32.5488 -32.5488 -32.5341 -32.5341
    -6.6070  -6.6070  -5.9791  -5.9791  -5.2604  -5.2604  -4.9851  -4.9851
     4.6510   4.6510   5.6613   5.6613   6.1796   6.1796   6.3316   6.3316
     7.0879   7.0879   7.3849   7.3849   8.5640   8.5640   8.7433   8.7433
     9.4191   9.4191   9.5192   9.5192  10.2294  10.2294  11.0070  11.0070
    11.6482  11.6482  11.9941  11.9941  12.2707  12.2707  12.6178  12.6178
    13.2212  13.2212  14.3740  14.3740  16.0515  16.0515  17.4098  17.4098
    17.7872  17.7872  18.2766  18.2766  20.0176  20.0176

     occupation numbers 
     1.0000   1.0000   1.0000   1.0000   1.0000   1.0000   1.0000   1.0000
     1.0000   1.0000   1.0000   1.0000   1.0000   1.0000   1.0000   1.0000
     1.0000   1.0000   1.0000   1.0000   1.0000   1.0000   1.0000   1.0000
     1.0000   1.0000   1.0000   1.0000   1.0000   1.0000   1.0000   1.0000
     1.0000   1.0000   1.0000   1.0000   1.0000   1.0000   1.0000   1.0000
     1.0000   1.0000   1.0000   1.0000   1.0000   1.0000   1.0000   1.0000
     1.0000   1.0000   1.0000   1.0000   1.0000   1.0000   1.0000   1.0000
     1.0000   1.0000  -0.0000  -0.0000  -0.0000  -0.0000  -0.0000  -0.0000
    -0.0000  -0.0000  -0.0000  -0.0000  -0.0000  -0.0000

          k = 0.1667-0.5000 0.0000 (  5372 PWs)   bands (ev):

   -79.3333 -79.3333 -79.3333 -79.3333 -46.1509 -46.1509 -46.1509 -46.1509
   -32.6773 -32.6773 -32.6773 -32.6773 -32.5419 -32.5419 -32.5419 -32.5419
    -6.2771  -6.2771  -6.2771  -6.2771  -5.1597  -5.1597  -5.1597  -5.1597
     5.2148   5.2148   5.2148   5.2148   6.2546   6.2546   6.2546   6.2546
     7.6785   7.6785   7.6785   7.6785   8.3118   8.3118   8.3118   8.3118
     9.0396   9.0396   9.0396   9.0396  10.5471  10.5471  10.5471  10.5471
    12.0787  12.0787  12.0787  12.0787  12.4343  12.4343  12.4343  12.4343
    13.8129  13.8129  13.8129  13.8129  17.0673  17.0673  17.0673  17.0673
    17.6442  17.6442  17.6442  17.6442  21.1592  21.1592

     occupation numbers 
     1.0000   1.0000   1.0000   1.0000   1.0000   1.0000   1.0000   1.0000
     1.0000   1.0000   1.0000   1.0000   1.0000   1.0000   1.0000   1.0000
     1.0000   1.0000   1.0000   1.0000   1.0000   1.0000   1.0000   1.0000
     1.0000   1.0000   1.0000   1.0000   1.0000   1.0000   1.0000   1.0000
     1.0000   1.0000   1.0000   1.0000   1.0000   1.0000   1.0000   1.0000
     1.0000   1.0000   1.0000   1.0000   1.0000   1.0000   1.0000   1.0000
     1.0000   1.0000   1.0000   1.0000   1.0000   1.0000   1.0000   1.0000
     0.8745   0.8745   0.8745   0.8745  -0.0000  -0.0000  -0.0000  -0.0000
    -0.0000  -0.0000  -0.0000  -0.0000  -0.0000  -0.0000

          k = 0.3333 0.3333 0.0000 (  5393 PWs)   bands (ev):

   -79.3334 -79.3334 -79.3331 -79.3331 -46.1523 -46.1523 -46.1496 -46.1496
   -32.6799 -32.6799 -32.6768 -32.6768 -32.5453 -32.5453 -32.5366 -32.5366
    -6.5058  -6.5058  -6.1423  -6.1423  -5.1884  -5.1884  -4.9587  -4.9587
     4.4288   4.4288   5.2155   5.2155   6.1228   6.1228   6.2438   6.2438
     7.5398   7.5398   7.9782   7.9782   8.8499   8.8499   8.9767   8.9767
     9.6310   9.6310   9.7066   9.7066   9.8197   9.8197  10.7226  10.7226
    11.2619  11.2619  11.7680  11.7680  12.1393  12.1393  12.4469  12.4469
    13.6419  13.6419  14.2746  14.2746  16.0302  16.0302  17.3282  17.3282
    17.6072  17.6072  18.0585  18.0585  20.9571  20.9571

     occupation numbers 
     1.0000   1.0000   1.0000   1.0000   1.0000   1.0000   1.0000   1.0000
     1.0000   1.0000   1.0000   1.0000   1.0000   1.0000   1.0000   1.0000
     1.0000   1.0000   1.0000   1.0000   1.0000   1.0000   1.0000   1.0000
     1.0000   1.0000   1.0000   1.0000   1.0000   1.0000   1.0000   1.0000
     1.0000   1.0000   1.0000   1.0000   1.0000   1.0000   1.0000   1.0000
     1.0000   1.0000   1.0000   1.0000   1.0000   1.0000   1.0000   1.0000
     1.0000   1.0000   1.0000   1.0000   1.0000   1.0000   1.0000   1.0000
     1.0001   1.0001  -0.0000  -0.0000  -0.0000  -0.0000  -0.0000  -0.0000
    -0.0000  -0.0000  -0.0000  -0.0000  -0.0000  -0.0000

          k = 0.3333-0.5000 0.0000 (  5386 PWs)   bands (ev):

   -79.3333 -79.3333 -79.3333 -79.3333 -46.1509 -46.1509 -46.1509 -46.1509
   -32.6787 -32.6787 -32.6787 -32.6787 -32.5407 -32.5407 -32.5407 -32.5407
    -6.3416  -6.3416  -6.3416  -6.3416  -5.0473  -5.0473  -5.0473  -5.0473
     4.6484   4.6484   4.6484   4.6484   6.1489   6.1489   6.1489   6.1489
     8.1736   8.1736   8.1736   8.1736   9.0452   9.0452   9.0452   9.0452
     9.4616   9.4616   9.4616   9.4616  10.1228  10.1228  10.1228  10.1228
    11.6301  11.6301  11.6301  11.6301  12.0843  12.0843  12.0843  12.0843
    14.0160  14.0160  14.0160  14.0160  16.5410  16.5410  16.5410  16.5410
    17.8894  17.8894  17.8894  17.8894  21.8688  21.8688

     occupation numbers 
     1.0000   1.0000   1.0000   1.0000   1.0000   1.0000   1.0000   1.0000
     1.0000   1.0000   1.0000   1.0000   1.0000   1.0000   1.0000   1.0000
     1.0000   1.0000   1.0000   1.0000   1.0000   1.0000   1.0000   1.0000
     1.0000   1.0000   1.0000   1.0000   1.0000   1.0000   1.0000   1.0000
     1.0000   1.0000   1.0000   1.0000   1.0000   1.0000   1.0000   1.0000
     1.0000   1.0000   1.0000   1.0000   1.0000   1.0000   1.0000   1.0000
     1.0000   1.0000   1.0000   1.0000   1.0000   1.0000   1.0000   1.0000
    -0.0013  -0.0013  -0.0013  -0.0013  -0.0000  -0.0000  -0.0000  -0.0000
    -0.0000  -0.0000  -0.0000  -0.0000  -0.0000  -0.0000

          k =-0.5000-0.5000 0.0000 (  5412 PWs)   bands (ev):

   -79.3333 -79.3333 -79.3333 -79.3333 -46.1509 -46.1509 -46.1509 -46.1509
   -32.6794 -32.6794 -32.6794 -32.6794 -32.5401 -32.5401 -32.5401 -32.5401
    -6.3704  -6.3704  -6.3704  -6.3704  -4.9941  -4.9941  -4.9941  -4.9941
     4.4270   4.4270   4.4270   4.4270   6.1027   6.1027   6.1027   6.1027
     8.7678   8.7678   8.7678   8.7678   8.7906   8.7906   8.7906   8.7906
     9.6791   9.6791   9.6791   9.6791  10.3883  10.3883  10.3883  10.3883
    11.2158  11.2158  11.2158  11.2158  11.8475  11.8475  11.8475  11.8475
    14.0976  14.0976  14.0976  14.0976  16.2979  16.2979  16.2979  16.2979
    18.0131  18.0131  18.0131  18.0131  22.4252  22.8748

     occupation numbers 
     1.0000   1.0000   1.0000   1.0000   1.0000   1.0000   1.0000   1.0000
     1.0000   1.0000   1.0000   1.0000   1.0000   1.0000   1.0000   1.0000
     1.0000   1.0000   1.0000   1.0000   1.0000   1.0000   1.0000   1.0000
     1.0000   1.0000   1.0000   1.0000   1.0000   1.0000   1.0000   1.0000
     1.0000   1.0000   1.0000   1.0000   1.0000   1.0000   1.0000   1.0000
     1.0000   1.0000   1.0000   1.0000   1.0000   1.0000   1.0000   1.0000
     1.0000   1.0000   1.0000   1.0000   1.0000   1.0000   1.0000   1.0000
    -0.0000  -0.0000  -0.0000  -0.0000  -0.0000  -0.0000  -0.0000  -0.0000
    -0.0000  -0.0000  -0.0000  -0.0000  -0.0000  -0.0000

     the Fermi energy is    13.8475 ev

!    total energy              =    -553.16616103 Ry
     estimated scf accuracy    <          2.3E-10 Ry
     smearing contrib. (-TS)   =      -0.00009956 Ry
     internal energy E=F+TS    =    -553.16606147 Ry

     The total energy is F=E-TS. E is the sum of the following terms:
     one-electron contribution =    -191.21788056 Ry
     hartree contribution      =     122.98641635 Ry
     xc contribution           =     -69.94858674 Ry
     ewald contribution        =    -414.98601052 Ry

     convergence has been achieved in  10 iterations

     Forces acting on atoms (cartesian axes, Ry/au):

     atom    1 type  2   force =     0.00000000    0.00000000   -0.00000000
     atom    2 type  2   force =     0.00000000    0.00000000    0.00000000
     atom    3 type  1   force =    -0.01274666    0.01274666    0.00000000
     atom    4 type  1   force =     0.01274666    0.01274666   -0.00000000
     atom    5 type  1   force =    -0.01274666   -0.01274666   -0.00000000
     atom    6 type  1   force =     0.01274666   -0.01274666    0.00000000
     The non-local contrib.  to forces
     atom    1 type  2   force =     0.00000000    0.00000000   -0.00000000
     atom    2 type  2   force =     0.00000000    0.00000000    0.00000000
     atom    3 type  1   force =    -0.02371284    0.02371284    0.00000000
     atom    4 type  1   force =     0.02371284    0.02371284    0.00000000
     atom    5 type  1   force =    -0.02371284   -0.02371284    0.00000000
     atom    6 type  1   force =     0.02371284   -0.02371284    0.00000000
     The ionic contribution  to forces
     atom    1 type  2   force =    -0.00000000   -0.00000000    0.00000000
     atom    2 type  2   force =     0.00000000    0.00000000   -0.00000000
     atom    3 type  1   force =     1.42937233   -1.42937233    0.00000000
     atom    4 type  1   force =    -1.42937233   -1.42937233   -0.00000000
     atom    5 type  1   force =     1.42937233    1.42937233   -0.00000000
     atom    6 type  1   force =    -1.42937233    1.42937233    0.00000000
     The local contribution  to forces
     atom    1 type  2   force =     0.00000000    0.00000000    0.00000000
     atom    2 type  2   force =     0.00000000    0.00000000    0.00000000
     atom    3 type  1   force =    -1.41840676    1.41840676    0.00000000
     atom    4 type  1   force =     1.41840676    1.41840676    0.00000000
     atom    5 type  1   force =    -1.41840676   -1.41840676    0.00000000
     atom    6 type  1   force =     1.41840676   -1.41840676    0.00000000
     The core correction contribution to forces
     atom    1 type  2   force =     0.00000000    0.00000000    0.00000000
     atom    2 type  2   force =     0.00000000    0.00000000    0.00000000
     atom    3 type  1   force =     0.00000000    0.00000000    0.00000000
     atom    4 type  1   force =     0.00000000    0.00000000    0.00000000
     atom    5 type  1   force =     0.00000000    0.00000000    0.00000000
     atom    6 type  1   force =     0.00000000    0.00000000    0.00000000
     The Hubbard contrib.    to forces
     atom    1 type  2   force =     0.00000000    0.00000000    0.00000000
     atom    2 type  2   force =     0.00000000    0.00000000    0.00000000
     atom    3 type  1   force =     0.00000000    0.00000000    0.00000000
     atom    4 type  1   force =     0.00000000    0.00000000    0.00000000
     atom    5 type  1   force =     0.00000000    0.00000000    0.00000000
     atom    6 type  1   force =     0.00000000    0.00000000    0.00000000
     The SCF correction term to forces
     atom    1 type  2   force =     0.00000000   -0.00000000    0.00000000
     atom    2 type  2   force =    -0.00000000    0.00000000   -0.00000000
     atom    3 type  1   force =     0.00000061   -0.00000061   -0.00000000
     atom    4 type  1   force =    -0.00000061   -0.00000061    0.00000000
     atom    5 type  1   force =     0.00000061    0.00000061    0.00000000
     atom    6 type  1   force =    -0.00000061    0.00000061   -0.00000000

     Total force =     0.036053     Total SCF correction =     0.000002


     Computing stress (Cartesian axis) and pressure

          total   stress  (Ry/bohr**3)                   (kbar)     P=     -109.38
  -0.00037591   0.00000000   0.00000000          -55.30        0.00        0.00
   0.00000000  -0.00037591   0.00000000            0.00      -55.30        0.00
   0.00000000   0.00000000  -0.00147887            0.00        0.00     -217.55

     kinetic stress (kbar)  48480.85      0.00      0.00
                                0.00  48480.85      0.00
                                0.00      0.00  47448.16

     local   stress (kbar) -12730.78      0.00     -0.00
                                0.00 -12730.78      0.00
                               -0.00      0.00 -44484.05

     nonloc. stress (kbar)  14490.46      0.00      0.00
                                0.00  14490.46      0.00
                                0.00      0.00  14672.92

     hartree stress (kbar)   9631.23     -0.00      0.00
                               -0.00   9631.23     -0.00
                                0.00     -0.00  21422.18

     exc-cor stress (kbar)  -7290.85      0.00      0.00
                                0.00  -7290.85     -0.00
                                0.00     -0.00  -7269.32

     corecor stress (kbar)      0.00      0.00      0.00
                                0.00      0.00      0.00
                                0.00      0.00      0.00

     ewald   stress (kbar) -52636.21     -0.00     -0.00
                               -0.00 -52636.21     -0.00
                               -0.00     -0.00 -32007.45

     hubbard stress (kbar)      0.00      0.00      0.00
                                0.00      0.00      0.00
                                0.00      0.00      0.00

     DFT-D   stress (kbar)      0.00      0.00      0.00
                                0.00      0.00      0.00
                                0.00      0.00      0.00

     XDM     stress (kbar)      0.00      0.00      0.00
                                0.00      0.00      0.00
                                0.00      0.00      0.00

     dft-nl  stress (kbar)      0.00      0.00      0.00
                                0.00      0.00      0.00
                                0.00      0.00      0.00

     TS-vdW  stress (kbar)      0.00      0.00      0.00
                                0.00      0.00      0.00
                                0.00      0.00      0.00


                                0.00      0.00      0.00
                                0.00      0.00      0.00


                                0.00      0.00      0.00


     Writing all to output data dir tmp/espresso.save/
 
     init_run     :      1.06s CPU      0.57s WALL (       1 calls)
     electrons    :     33.71s CPU     17.27s WALL (       1 calls)
     forces       :      1.68s CPU      0.86s WALL (       1 calls)
     stress       :      2.41s CPU      1.21s WALL (       1 calls)

     Called by init_run:
     wfcinit      :      0.99s CPU      0.51s WALL (       1 calls)
     wfcinit:atom :      0.00s CPU      0.00s WALL (      10 calls)
     wfcinit:wfcr :      0.96s CPU      0.50s WALL (      10 calls)
     potinit      :      0.02s CPU      0.01s WALL (       1 calls)
     hinit0       :      0.04s CPU      0.03s WALL (       1 calls)

     Called by electrons:
     c_bands      :     30.76s CPU     15.75s WALL (      10 calls)
     sum_band     :      2.81s CPU      1.44s WALL (      10 calls)
     v_of_rho     :      0.05s CPU      0.03s WALL (      11 calls)
     v_h          :      0.01s CPU      0.00s WALL (      11 calls)
     v_xc         :      0.05s CPU      0.02s WALL (      11 calls)
     mix_rho      :      0.05s CPU      0.02s WALL (      10 calls)

     Called by c_bands:
     init_us_2    :      0.10s CPU      0.05s WALL (     230 calls)
     init_us_2:cp :      0.10s CPU      0.05s WALL (     230 calls)
     cegterg      :     28.42s CPU     14.56s WALL (     100 calls)

     Called by sum_band:
     sum_band:wei :      0.03s CPU      0.01s WALL (      10 calls)
     sum_band:loo :      2.76s CPU      1.41s WALL (      10 calls)
     sum_band:buf :      0.02s CPU      0.01s WALL (     100 calls)
     sum_band:ini :      0.03s CPU      0.02s WALL (     100 calls)

     Called by *egterg:
     cdiaghg      :      4.09s CPU      2.07s WALL (     322 calls)
     cegterg:over :      1.78s CPU      0.91s WALL (     222 calls)
     cegterg:upda :      1.39s CPU      0.71s WALL (     222 calls)
     cegterg:last :      2.44s CPU      1.24s WALL (     200 calls)
     cdiaghg:chol :      0.19s CPU      0.10s WALL (     322 calls)
     cdiaghg:inve :      0.03s CPU      0.02s WALL (     322 calls)
     cdiaghg:para :      0.43s CPU      0.22s WALL (     644 calls)
     h_psi        :     18.93s CPU      9.73s WALL (     332 calls)
     g_psi        :      0.03s CPU      0.01s WALL (     222 calls)

     Called by h_psi:
     h_psi:calbec :      2.31s CPU      1.21s WALL (     332 calls)
     vloc_psi     :     13.29s CPU      6.83s WALL (     332 calls)
     add_vuspsi   :      3.29s CPU      1.67s WALL (     332 calls)

     General routines
     calbec       :      2.86s CPU      1.50s WALL (     382 calls)
     fft          :      0.06s CPU      0.03s WALL (     150 calls)
     ffts         :      0.01s CPU      0.01s WALL (      40 calls)
     fftw         :     15.03s CPU      7.71s WALL (   86304 calls)
 
     Parallel routines
 
     PWSCF        :     40.30s CPU     21.14s WALL

 
   This run was terminated on:   9:38:22  10Apr2022            

=------------------------------------------------------------------------------=
   JOB DONE.
=------------------------------------------------------------------------------=
