
     Program PWSCF v.7.0 starts on 10Apr2022 at  9:46: 3 

     This program is part of the open-source Quantum ESPRESSO suite
     for quantum simulation of materials; please cite
         "P. Giannozzi et al., J. Phys.:Condens. Matter 21 395502 (2009);
         "P. Giannozzi et al., J. Phys.:Condens. Matter 29 465901 (2017);
         "P. Giannozzi et al., J. Chem. Phys. 152 154105 (2020);
          URL http://www.quantum-espresso.org", 
     in publications or presentations arising from this work. More details at
     http://www.quantum-espresso.org/quote

     Parallel version (MPI & OpenMP), running on      64 processor cores
     Number of MPI processes:                32
     Threads/MPI process:                     2

     MPI processes distributed on     1 nodes
     R & G space division:  proc/nbgrp/npool/nimage =      32
     231321 MiB available memory on the printing compute node when the environment starts
 
     Reading input from kpoints_10102.pwi
Warning: card &CELL ignored
Warning: card / ignored

     Current dimensions of program PWSCF are:
     Max number of different atomic species (ntypx) = 10
     Max number of k-points (npk) =  40000
     Max angular momentum in pseudopotentials (lmaxx) =  4

     Subspace diagonalization in iterative solution of the eigenvalue problem:
     one sub-group per band group will be used
     scalapack distributed-memory algorithm (size of sub-group:  5*  5 procs)

 
     Parallelization info
     --------------------
     sticks:   dense  smooth     PW     G-vecs:    dense   smooth      PW
     Min          58      58     17                 1342     1342     211
     Max          59      59     18                 1345     1345     214
     Sum        1885    1885    553                42999    42999    6811
 
     Using Slab Decomposition
 

     Title: 
     IrO2 Unit Cell                                                             


     bravais-lattice index     =            6
     lattice parameter (alat)  =       8.5888  a.u.
     unit-cell volume          =     444.6868 (a.u.)^3
     number of atoms/cell      =            6
     number of atomic types    =            2
     number of electrons       =        58.00
     number of Kohn-Sham states=           70
     kinetic-energy cutoff     =      80.0000  Ry
     charge density cutoff     =     320.0000  Ry
     scf convergence threshold =      1.0E-09
     mixing beta               =       0.7000
     number of iterations used =            8  plain     mixing
     Exchange-correlation= PBE
                           (   1   4   3   4   0   0   0)
     Non magnetic calculation with spin-orbit


     celldm(1)=   8.588800  celldm(2)=   0.000000  celldm(3)=   0.701870
     celldm(4)=   0.000000  celldm(5)=   0.000000  celldm(6)=   0.000000

     crystal axes: (cart. coord. in units of alat)
               a(1) = (   1.000000   0.000000   0.000000 )  
               a(2) = (   0.000000   1.000000   0.000000 )  
               a(3) = (   0.000000   0.000000   0.701870 )  

     reciprocal axes: (cart. coord. in units 2 pi/alat)
               b(1) = (  1.000000  0.000000  0.000000 )  
               b(2) = (  0.000000  1.000000  0.000000 )  
               b(3) = (  0.000000  0.000000  1.424765 )  


     PseudoPot. # 1 for O  read from file:
     ../../XX_PSEUDO/O_ONCV_PBE_fr.upf
     MD5 check sum: 59c925217d3b58c6d762355590b68b09
     Pseudo is Norm-conserving, Zval =  6.0
     Generated using ONCVPSP code by D. R. Hamann
     Using radial grid of  936 points,  6 beta functions with: 
                l(1) =   0
                l(2) =   0
                l(3) =   1
                l(4) =   1
                l(5) =   1
                l(6) =   1

     PseudoPot. # 2 for Ir read from file:
     ../../XX_PSEUDO/Ir_ONCV_PBE_fr.upf
     MD5 check sum: 924e909c4146afa09f62ee3401806954
     Pseudo is Norm-conserving, Zval = 17.0
     Generated using ONCVPSP code by D. R. Hamann
     Using radial grid of 1310 points, 14 beta functions with: 
                l(1) =   0
                l(2) =   0
                l(3) =   1
                l(4) =   1
                l(5) =   1
                l(6) =   1
                l(7) =   2
                l(8) =   2
                l(9) =   2
               l(10) =   2
               l(11) =   3
               l(12) =   3
               l(13) =   3
               l(14) =   3

     atomic species   valence    mass     pseudopotential
        O              6.00    15.99900     O ( 1.00)
        Ir            17.00   192.21700     Ir( 1.00)

     16 Sym. Ops., with inversion, found ( 8 have fractional translation)


                                    s                        frac. trans.

      isym =  1     identity                                     

 cryst.   s( 1) = (     1          0          0      )
                  (     0          1          0      )
                  (     0          0          1      )

 cart.    s( 1) = (  1.0000000  0.0000000  0.0000000 )
                  (  0.0000000  1.0000000  0.0000000 )
                  (  0.0000000  0.0000000  1.0000000 )


      isym =  2     180 deg rotation - cart. axis [0,0,1]        

 cryst.   s( 2) = (    -1          0          0      )
                  (     0         -1          0      )
                  (     0          0          1      )

 cart.    s( 2) = ( -1.0000000  0.0000000  0.0000000 )
                  (  0.0000000 -1.0000000  0.0000000 )
                  (  0.0000000  0.0000000  1.0000000 )


      isym =  3     180 deg rotation - cart. axis [0,1,0]        

 cryst.   s( 3) = (    -1          0          0      )    f =(  0.5000000 )
                  (     0          1          0      )       ( -0.5000000 )
                  (     0          0         -1      )       (  0.5000000 )

 cart.    s( 3) = ( -1.0000000  0.0000000  0.0000000 )    f =(  0.5000000 )
                  (  0.0000000  1.0000000  0.0000000 )       ( -0.5000000 )
                  (  0.0000000  0.0000000 -1.0000000 )       (  0.3509351 )


      isym =  4     180 deg rotation - cart. axis [1,0,0]        

 cryst.   s( 4) = (     1          0          0      )    f =( -0.5000000 )
                  (     0         -1          0      )       (  0.5000000 )
                  (     0          0         -1      )       (  0.5000000 )

 cart.    s( 4) = (  1.0000000  0.0000000  0.0000000 )    f =( -0.5000000 )
                  (  0.0000000 -1.0000000  0.0000000 )       (  0.5000000 )
                  (  0.0000000  0.0000000 -1.0000000 )       (  0.3509351 )


      isym =  5     180 deg rotation - cart. axis [1,1,0]        

 cryst.   s( 5) = (     0          1          0      )
                  (     1          0          0      )
                  (     0          0         -1      )

 cart.    s( 5) = (  0.0000000  1.0000000  0.0000000 )
                  (  1.0000000  0.0000000  0.0000000 )
                  (  0.0000000  0.0000000 -1.0000000 )


      isym =  6     180 deg rotation - cart. axis [1,-1,0]       

 cryst.   s( 6) = (     0         -1          0      )
                  (    -1          0          0      )
                  (     0          0         -1      )

 cart.    s( 6) = (  0.0000000 -1.0000000  0.0000000 )
                  ( -1.0000000  0.0000000  0.0000000 )
                  (  0.0000000  0.0000000 -1.0000000 )


      isym =  7      90 deg rotation - cart. axis [0,0,-1]       

 cryst.   s( 7) = (     0         -1          0      )    f =( -0.5000000 )
                  (     1          0          0      )       (  0.5000000 )
                  (     0          0          1      )       ( -0.5000000 )

 cart.    s( 7) = (  0.0000000  1.0000000  0.0000000 )    f =( -0.5000000 )
                  ( -1.0000000  0.0000000  0.0000000 )       (  0.5000000 )
                  (  0.0000000  0.0000000  1.0000000 )       ( -0.3509351 )


      isym =  8      90 deg rotation - cart. axis [0,0,1]        

 cryst.   s( 8) = (     0          1          0      )    f =(  0.5000000 )
                  (    -1          0          0      )       ( -0.5000000 )
                  (     0          0          1      )       ( -0.5000000 )

 cart.    s( 8) = (  0.0000000 -1.0000000  0.0000000 )    f =(  0.5000000 )
                  (  1.0000000  0.0000000  0.0000000 )       ( -0.5000000 )
                  (  0.0000000  0.0000000  1.0000000 )       ( -0.3509351 )


      isym =  9     inversion                                    

 cryst.   s( 9) = (    -1          0          0      )
                  (     0         -1          0      )
                  (     0          0         -1      )

 cart.    s( 9) = ( -1.0000000  0.0000000  0.0000000 )
                  (  0.0000000 -1.0000000  0.0000000 )
                  (  0.0000000  0.0000000 -1.0000000 )


      isym = 10     inv. 180 deg rotation - cart. axis [0,0,1]   

 cryst.   s(10) = (     1          0          0      )
                  (     0          1          0      )
                  (     0          0         -1      )

 cart.    s(10) = (  1.0000000  0.0000000  0.0000000 )
                  (  0.0000000  1.0000000  0.0000000 )
                  (  0.0000000  0.0000000 -1.0000000 )


      isym = 11     inv. 180 deg rotation - cart. axis [0,1,0]   

 cryst.   s(11) = (     1          0          0      )    f =( -0.5000000 )
                  (     0         -1          0      )       (  0.5000000 )
                  (     0          0          1      )       ( -0.5000000 )

 cart.    s(11) = (  1.0000000  0.0000000  0.0000000 )    f =( -0.5000000 )
                  (  0.0000000 -1.0000000  0.0000000 )       (  0.5000000 )
                  (  0.0000000  0.0000000  1.0000000 )       ( -0.3509351 )


      isym = 12     inv. 180 deg rotation - cart. axis [1,0,0]   

 cryst.   s(12) = (    -1          0          0      )    f =(  0.5000000 )
                  (     0          1          0      )       ( -0.5000000 )
                  (     0          0          1      )       ( -0.5000000 )

 cart.    s(12) = ( -1.0000000  0.0000000  0.0000000 )    f =(  0.5000000 )
                  (  0.0000000  1.0000000  0.0000000 )       ( -0.5000000 )
                  (  0.0000000  0.0000000  1.0000000 )       ( -0.3509351 )


      isym = 13     inv. 180 deg rotation - cart. axis [1,1,0]   

 cryst.   s(13) = (     0         -1          0      )
                  (    -1          0          0      )
                  (     0          0          1      )

 cart.    s(13) = (  0.0000000 -1.0000000  0.0000000 )
                  ( -1.0000000  0.0000000  0.0000000 )
                  (  0.0000000  0.0000000  1.0000000 )


      isym = 14     inv. 180 deg rotation - cart. axis [1,-1,0]  

 cryst.   s(14) = (     0          1          0      )
                  (     1          0          0      )
                  (     0          0          1      )

 cart.    s(14) = (  0.0000000  1.0000000  0.0000000 )
                  (  1.0000000  0.0000000  0.0000000 )
                  (  0.0000000  0.0000000  1.0000000 )


      isym = 15     inv.  90 deg rotation - cart. axis [0,0,-1]  

 cryst.   s(15) = (     0          1          0      )    f =(  0.5000000 )
                  (    -1          0          0      )       ( -0.5000000 )
                  (     0          0         -1      )       (  0.5000000 )

 cart.    s(15) = (  0.0000000 -1.0000000  0.0000000 )    f =(  0.5000000 )
                  (  1.0000000  0.0000000  0.0000000 )       ( -0.5000000 )
                  (  0.0000000  0.0000000 -1.0000000 )       (  0.3509351 )


      isym = 16     inv.  90 deg rotation - cart. axis [0,0,1]   

 cryst.   s(16) = (     0         -1          0      )    f =( -0.5000000 )
                  (     1          0          0      )       (  0.5000000 )
                  (     0          0         -1      )       (  0.5000000 )

 cart.    s(16) = (  0.0000000  1.0000000  0.0000000 )    f =( -0.5000000 )
                  ( -1.0000000  0.0000000  0.0000000 )       (  0.5000000 )
                  (  0.0000000  0.0000000 -1.0000000 )       (  0.3509351 )


     double point group D_4h(4/mmm)
     there are 14 classes and  4 irreducible representations
     the character table:

       E     -E    2C4   -2C4   C2    2C2' 2C2'' i     -i    2S4   -2S4   s_h 
                               -C2   -2C2' -2C2'                         -s_h 
G_6+   2.00 -2.00  1.41 -1.41  0.00  0.00  0.00  2.00 -2.00  1.41 -1.41  0.00
G_7+   2.00 -2.00 -1.41  1.41  0.00  0.00  0.00  2.00 -2.00 -1.41  1.41  0.00
G_6-   2.00 -2.00  1.41 -1.41  0.00  0.00  0.00 -2.00  2.00 -1.41  1.41  0.00
G_7-   2.00 -2.00 -1.41  1.41  0.00  0.00  0.00 -2.00  2.00  1.41 -1.41  0.00

        2s_v  2s_d
       -2s_v -2s_d
G_6+   0.00  0.00
G_7+   0.00  0.00
G_6-   0.00  0.00
G_7-   0.00  0.00

     the symmetry operations in each class and the name of the first element:

     E             1
          identity                                               
     -E           -1
          identity E                                             
     2C4           7    8
           90 deg rotation - cart. axis [0,0,-1]                 
     -2C4         -7   -8
           90 deg rotation - cart. axis [0,0,-1] E               
      C2  -C2      2   -2
          180 deg rotation - cart. axis [0,0,1]                  
      2C2'-2C2'    3   -3    4   -4
          180 deg rotation - cart. axis [0,1,0]                  
     2C2''-2C2'    5   -5   -6    6
          180 deg rotation - cart. axis [1,1,0]                  
     i             9
          inversion                                              
     -i           -9
          inversion E                                            
     2S4          15   16
          inv.  90 deg rotation - cart. axis [0,0,-1]            
     -2S4        -15  -16
          inv.  90 deg rotation - cart. axis [0,0,-1] E          
      s_h -s_h    10  -10
          inv. 180 deg rotation - cart. axis [0,0,1]             
      2s_v-2s_v   11  -11   12  -12
          inv. 180 deg rotation - cart. axis [0,1,0]             
      2s_d-2s_d   13  -13  -14   14
          inv. 180 deg rotation - cart. axis [1,1,0]             

   Cartesian axes

     site n.     atom                  positions (alat units)
         1           Ir  tau(   1) = (   0.0000000   0.0000000   0.0000000  )
         2           Ir  tau(   2) = (   0.5000000   0.5000000   0.3509351  )
         3           O   tau(   3) = (   0.1916000   0.8084000   0.3509351  )
         4           O   tau(   4) = (   0.3084000   0.3084000   0.0000000  )
         5           O   tau(   5) = (   0.6916000   0.6916000   0.0000000  )
         6           O   tau(   6) = (   0.8084000   0.1916000   0.3509351  )

   Crystallographic axes

     site n.     atom                  positions (cryst. coord.)
         1           Ir  tau(   1) = (  0.0000000  0.0000000  0.0000000  )
         2           Ir  tau(   2) = (  0.5000000  0.5000000  0.5000000  )
         3           O   tau(   3) = (  0.1916000  0.8084000  0.5000000  )
         4           O   tau(   4) = (  0.3084000  0.3084000  0.0000000  )
         5           O   tau(   5) = (  0.6916000  0.6916000  0.0000000  )
         6           O   tau(   6) = (  0.8084000  0.1916000  0.5000000  )

     number of k points=    42  Methfessel-Paxton smearing, width (Ry)=  0.0050
                       cart. coord. in units 2pi/alat
        k(    1) = (   0.0000000   0.0000000   0.0000000), wk =   0.0050000
        k(    2) = (   0.0000000   0.0000000  -0.7123824), wk =   0.0050000
        k(    3) = (   0.0000000   0.1000000   0.0000000), wk =   0.0200000
        k(    4) = (   0.0000000   0.1000000  -0.7123824), wk =   0.0200000
        k(    5) = (   0.0000000   0.2000000   0.0000000), wk =   0.0200000
        k(    6) = (   0.0000000   0.2000000  -0.7123824), wk =   0.0200000
        k(    7) = (   0.0000000   0.3000000   0.0000000), wk =   0.0200000
        k(    8) = (   0.0000000   0.3000000  -0.7123824), wk =   0.0200000
        k(    9) = (   0.0000000   0.4000000   0.0000000), wk =   0.0200000
        k(   10) = (   0.0000000   0.4000000  -0.7123824), wk =   0.0200000
        k(   11) = (   0.0000000  -0.5000000   0.0000000), wk =   0.0100000
        k(   12) = (   0.0000000  -0.5000000  -0.7123824), wk =   0.0100000
        k(   13) = (   0.1000000   0.1000000   0.0000000), wk =   0.0200000
        k(   14) = (   0.1000000   0.1000000  -0.7123824), wk =   0.0200000
        k(   15) = (   0.1000000   0.2000000   0.0000000), wk =   0.0400000
        k(   16) = (   0.1000000   0.2000000  -0.7123824), wk =   0.0400000
        k(   17) = (   0.1000000   0.3000000   0.0000000), wk =   0.0400000
        k(   18) = (   0.1000000   0.3000000  -0.7123824), wk =   0.0400000
        k(   19) = (   0.1000000   0.4000000   0.0000000), wk =   0.0400000
        k(   20) = (   0.1000000   0.4000000  -0.7123824), wk =   0.0400000
        k(   21) = (   0.1000000  -0.5000000   0.0000000), wk =   0.0200000
        k(   22) = (   0.1000000  -0.5000000  -0.7123824), wk =   0.0200000
        k(   23) = (   0.2000000   0.2000000   0.0000000), wk =   0.0200000
        k(   24) = (   0.2000000   0.2000000  -0.7123824), wk =   0.0200000
        k(   25) = (   0.2000000   0.3000000   0.0000000), wk =   0.0400000
        k(   26) = (   0.2000000   0.3000000  -0.7123824), wk =   0.0400000
        k(   27) = (   0.2000000   0.4000000   0.0000000), wk =   0.0400000
        k(   28) = (   0.2000000   0.4000000  -0.7123824), wk =   0.0400000
        k(   29) = (   0.2000000  -0.5000000   0.0000000), wk =   0.0200000
        k(   30) = (   0.2000000  -0.5000000  -0.7123824), wk =   0.0200000
        k(   31) = (   0.3000000   0.3000000   0.0000000), wk =   0.0200000
        k(   32) = (   0.3000000   0.3000000  -0.7123824), wk =   0.0200000
        k(   33) = (   0.3000000   0.4000000   0.0000000), wk =   0.0400000
        k(   34) = (   0.3000000   0.4000000  -0.7123824), wk =   0.0400000
        k(   35) = (   0.3000000  -0.5000000   0.0000000), wk =   0.0200000
        k(   36) = (   0.3000000  -0.5000000  -0.7123824), wk =   0.0200000
        k(   37) = (   0.4000000   0.4000000   0.0000000), wk =   0.0200000
        k(   38) = (   0.4000000   0.4000000  -0.7123824), wk =   0.0200000
        k(   39) = (   0.4000000  -0.5000000   0.0000000), wk =   0.0200000
        k(   40) = (   0.4000000  -0.5000000  -0.7123824), wk =   0.0200000
        k(   41) = (  -0.5000000  -0.5000000   0.0000000), wk =   0.0050000
        k(   42) = (  -0.5000000  -0.5000000  -0.7123824), wk =   0.0050000

                       cryst. coord.
        k(    1) = (   0.0000000   0.0000000   0.0000000), wk =   0.0050000
        k(    2) = (   0.0000000   0.0000000  -0.5000000), wk =   0.0050000
        k(    3) = (   0.0000000   0.1000000   0.0000000), wk =   0.0200000
        k(    4) = (   0.0000000   0.1000000  -0.5000000), wk =   0.0200000
        k(    5) = (   0.0000000   0.2000000   0.0000000), wk =   0.0200000
        k(    6) = (   0.0000000   0.2000000  -0.5000000), wk =   0.0200000
        k(    7) = (   0.0000000   0.3000000   0.0000000), wk =   0.0200000
        k(    8) = (   0.0000000   0.3000000  -0.5000000), wk =   0.0200000
        k(    9) = (   0.0000000   0.4000000   0.0000000), wk =   0.0200000
        k(   10) = (   0.0000000   0.4000000  -0.5000000), wk =   0.0200000
        k(   11) = (   0.0000000  -0.5000000   0.0000000), wk =   0.0100000
        k(   12) = (   0.0000000  -0.5000000  -0.5000000), wk =   0.0100000
        k(   13) = (   0.1000000   0.1000000   0.0000000), wk =   0.0200000
        k(   14) = (   0.1000000   0.1000000  -0.5000000), wk =   0.0200000
        k(   15) = (   0.1000000   0.2000000   0.0000000), wk =   0.0400000
        k(   16) = (   0.1000000   0.2000000  -0.5000000), wk =   0.0400000
        k(   17) = (   0.1000000   0.3000000   0.0000000), wk =   0.0400000
        k(   18) = (   0.1000000   0.3000000  -0.5000000), wk =   0.0400000
        k(   19) = (   0.1000000   0.4000000   0.0000000), wk =   0.0400000
        k(   20) = (   0.1000000   0.4000000  -0.5000000), wk =   0.0400000
        k(   21) = (   0.1000000  -0.5000000   0.0000000), wk =   0.0200000
        k(   22) = (   0.1000000  -0.5000000  -0.5000000), wk =   0.0200000
        k(   23) = (   0.2000000   0.2000000   0.0000000), wk =   0.0200000
        k(   24) = (   0.2000000   0.2000000  -0.5000000), wk =   0.0200000
        k(   25) = (   0.2000000   0.3000000   0.0000000), wk =   0.0400000
        k(   26) = (   0.2000000   0.3000000  -0.5000000), wk =   0.0400000
        k(   27) = (   0.2000000   0.4000000   0.0000000), wk =   0.0400000
        k(   28) = (   0.2000000   0.4000000  -0.5000000), wk =   0.0400000
        k(   29) = (   0.2000000  -0.5000000   0.0000000), wk =   0.0200000
        k(   30) = (   0.2000000  -0.5000000  -0.5000000), wk =   0.0200000
        k(   31) = (   0.3000000   0.3000000   0.0000000), wk =   0.0200000
        k(   32) = (   0.3000000   0.3000000  -0.5000000), wk =   0.0200000
        k(   33) = (   0.3000000   0.4000000   0.0000000), wk =   0.0400000
        k(   34) = (   0.3000000   0.4000000  -0.5000000), wk =   0.0400000
        k(   35) = (   0.3000000  -0.5000000   0.0000000), wk =   0.0200000
        k(   36) = (   0.3000000  -0.5000000  -0.5000000), wk =   0.0200000
        k(   37) = (   0.4000000   0.4000000   0.0000000), wk =   0.0200000
        k(   38) = (   0.4000000   0.4000000  -0.5000000), wk =   0.0200000
        k(   39) = (   0.4000000  -0.5000000   0.0000000), wk =   0.0200000
        k(   40) = (   0.4000000  -0.5000000  -0.5000000), wk =   0.0200000
        k(   41) = (  -0.5000000  -0.5000000   0.0000000), wk =   0.0050000
        k(   42) = (  -0.5000000  -0.5000000  -0.5000000), wk =   0.0050000

     Dense  grid:    42999 G-vectors     FFT dimensions: (  50,  50,  36)

     Dynamical RAM for                 wfc:       0.36 MB

     Dynamical RAM for     wfc (w. buffer):      15.34 MB

     Dynamical RAM for           str. fact:       0.04 MB

     Dynamical RAM for           local pot:       0.00 MB

     Dynamical RAM for          nlocal pot:       0.46 MB

     Dynamical RAM for                qrad:      20.10 MB

     Dynamical RAM for          rho,v,vnew:       0.70 MB

     Dynamical RAM for               rhoin:       0.23 MB

     Dynamical RAM for            rho*nmix:       1.31 MB

     Dynamical RAM for           G-vectors:       0.09 MB

     Dynamical RAM for          h,s,v(r/c):       0.04 MB

     Dynamical RAM for          <psi|beta>:       0.38 MB

     Dynamical RAM for                 psi:       0.71 MB

     Dynamical RAM for                hpsi:       0.71 MB

     Dynamical RAM for      wfcinit/wfcrot:       0.67 MB

     Estimated static dynamical RAM per process >      37.33 MB

     Estimated max dynamical RAM per process >      40.49 MB

     Estimated total dynamical RAM >       1.27 GB

     Initial potential from superposition of free atoms

     starting charge      57.9997, renormalised to      58.0000
     Starting wfcs are   72 randomized atomic wfcs

     total cpu time spent up to now is        2.3 secs

     Self-consistent Calculation

     iteration #  1     ecut=    80.00 Ry     beta= 0.70
     Davidson diagonalization with overlap

---- Real-time Memory Report at c_bands before calling an iterative solver
            89 MiB given to the printing process from OS
             0 MiB allocation reported by mallinfo(arena+hblkhd)
        229519 MiB available memory on the node where the printing process lives
------------------
     ethr =  1.00E-02,  avg # of iterations =  2.7

     total cpu time spent up to now is        9.6 secs

     total energy              =    -552.47214956 Ry
     estimated scf accuracy    <       1.17968985 Ry

     iteration #  2     ecut=    80.00 Ry     beta= 0.70
     Davidson diagonalization with overlap

---- Real-time Memory Report at c_bands before calling an iterative solver
            97 MiB given to the printing process from OS
             0 MiB allocation reported by mallinfo(arena+hblkhd)
        229343 MiB available memory on the node where the printing process lives
------------------
     ethr =  2.03E-03,  avg # of iterations =  2.1

     total cpu time spent up to now is       17.5 secs

     total energy              =    -552.29859388 Ry
     estimated scf accuracy    <       4.23514975 Ry

     iteration #  3     ecut=    80.00 Ry     beta= 0.70
     Davidson diagonalization with overlap

---- Real-time Memory Report at c_bands before calling an iterative solver
            99 MiB given to the printing process from OS
             0 MiB allocation reported by mallinfo(arena+hblkhd)
        229310 MiB available memory on the node where the printing process lives
------------------
     ethr =  2.03E-03,  avg # of iterations =  2.0

     total cpu time spent up to now is       24.9 secs

     total energy              =    -553.09905432 Ry
     estimated scf accuracy    <       0.04010416 Ry

     iteration #  4     ecut=    80.00 Ry     beta= 0.70
     Davidson diagonalization with overlap

---- Real-time Memory Report at c_bands before calling an iterative solver
           100 MiB given to the printing process from OS
             0 MiB allocation reported by mallinfo(arena+hblkhd)
        229299 MiB available memory on the node where the printing process lives
------------------
     ethr =  6.91E-05,  avg # of iterations =  3.6

     total cpu time spent up to now is       32.5 secs

     total energy              =    -553.10183051 Ry
     estimated scf accuracy    <       0.00705645 Ry

     iteration #  5     ecut=    80.00 Ry     beta= 0.70
     Davidson diagonalization with overlap

---- Real-time Memory Report at c_bands before calling an iterative solver
           101 MiB given to the printing process from OS
             0 MiB allocation reported by mallinfo(arena+hblkhd)
        229275 MiB available memory on the node where the printing process lives
------------------
     ethr =  1.22E-05,  avg # of iterations =  3.0

     total cpu time spent up to now is       39.4 secs

     total energy              =    -553.10315329 Ry
     estimated scf accuracy    <       0.00030899 Ry

     iteration #  6     ecut=    80.00 Ry     beta= 0.70
     Davidson diagonalization with overlap

---- Real-time Memory Report at c_bands before calling an iterative solver
           102 MiB given to the printing process from OS
             0 MiB allocation reported by mallinfo(arena+hblkhd)
        229270 MiB available memory on the node where the printing process lives
------------------
     c_bands:  2 eigenvalues not converged
     ethr =  5.33E-07,  avg # of iterations =  6.2

     total cpu time spent up to now is       47.3 secs

     total energy              =    -553.10319138 Ry
     estimated scf accuracy    <       0.00001477 Ry

     iteration #  7     ecut=    80.00 Ry     beta= 0.70
     Davidson diagonalization with overlap

---- Real-time Memory Report at c_bands before calling an iterative solver
           102 MiB given to the printing process from OS
             0 MiB allocation reported by mallinfo(arena+hblkhd)
        229247 MiB available memory on the node where the printing process lives
------------------
     ethr =  2.55E-08,  avg # of iterations =  2.4

     total cpu time spent up to now is       54.8 secs

     total energy              =    -553.10319504 Ry
     estimated scf accuracy    <       0.00000025 Ry

     iteration #  8     ecut=    80.00 Ry     beta= 0.70
     Davidson diagonalization with overlap

---- Real-time Memory Report at c_bands before calling an iterative solver
           105 MiB given to the printing process from OS
             0 MiB allocation reported by mallinfo(arena+hblkhd)
        229202 MiB available memory on the node where the printing process lives
------------------
     ethr =  4.33E-10,  avg # of iterations =  2.5

     total cpu time spent up to now is       62.0 secs

     total energy              =    -553.10319510 Ry
     estimated scf accuracy    <       0.00000001 Ry

     iteration #  9     ecut=    80.00 Ry     beta= 0.70
     Davidson diagonalization with overlap

---- Real-time Memory Report at c_bands before calling an iterative solver
           105 MiB given to the printing process from OS
             0 MiB allocation reported by mallinfo(arena+hblkhd)
        229196 MiB available memory on the node where the printing process lives
------------------
     ethr =  1.81E-11,  avg # of iterations =  2.3

     total cpu time spent up to now is       69.8 secs

     End of self-consistent calculation

          k = 0.0000 0.0000 0.0000 (  5409 PWs)   bands (ev):

   -79.4360 -79.4360 -79.4347 -79.4347 -46.2751 -46.2751 -46.2645 -46.2645
   -32.8138 -32.8138 -32.8086 -32.8086 -32.6639 -32.6639 -32.6441 -32.6441
    -7.1002  -7.1002  -5.9493  -5.9493  -5.0285  -5.0285  -4.8277  -4.8277
     4.2316   4.2316   4.4696   4.4696   6.0228   6.0228   6.1356   6.1356
     6.2428   6.2428   8.7850   8.7850   8.8999   8.8999   9.1588   9.1588
    10.3341  10.3341  10.9486  10.9486  10.9511  10.9511  10.9900  10.9900
    11.1888  11.1888  11.3704  11.3704  11.6126  11.6126  11.6346  11.6346
    12.0341  12.0341  14.6135  14.6135  15.0460  15.0460  17.6668  17.6668
    17.8830  17.8830  18.0241  18.0241  19.3921  19.3921

     occupation numbers 
     1.0000   1.0000   1.0000   1.0000   1.0000   1.0000   1.0000   1.0000
     1.0000   1.0000   1.0000   1.0000   1.0000   1.0000   1.0000   1.0000
     1.0000   1.0000   1.0000   1.0000   1.0000   1.0000   1.0000   1.0000
     1.0000   1.0000   1.0000   1.0000   1.0000   1.0000   1.0000   1.0000
     1.0000   1.0000   1.0000   1.0000   1.0000   1.0000   1.0000   1.0000
     1.0000   1.0000   1.0000   1.0000   1.0000   1.0000   1.0000   1.0000
     1.0000   1.0000   1.0000   1.0000   1.0000   1.0000   1.0000   1.0000
     1.0000   1.0000  -0.0000  -0.0000  -0.0000  -0.0000  -0.0000  -0.0000
    -0.0000  -0.0000  -0.0000  -0.0000  -0.0000  -0.0000

          k = 0.0000 0.0000-0.7124 (  5314 PWs)   bands (ev):

   -79.4330 -79.4330 -79.4330 -79.4330 -46.2811 -46.2811 -46.2811 -46.2811
   -32.8686 -32.8686 -32.8686 -32.8686 -32.6671 -32.6671 -32.6671 -32.6671
    -5.7607  -5.7607  -5.7607  -5.7607  -5.4274  -5.4274  -5.4274  -5.4274
     5.7040   5.7040   5.7040   5.7040   6.6869   6.6869   6.6869   6.6869
     7.0783   7.0783   7.0783   7.0783   8.1675   8.1675   8.1675   8.1675
     8.5319   8.5319   8.5319   8.5319   9.9427   9.9427   9.9427   9.9427
    11.8609  11.8609  11.8609  11.8609  13.0563  13.0563  13.0563  13.0563
    14.0820  14.0820  14.0820  14.0820  16.0491  16.0491  16.0491  16.0491
    16.5798  16.5798  16.5798  16.5798  22.9162  22.9162

     occupation numbers 
     1.0000   1.0000   1.0000   1.0000   1.0000   1.0000   1.0000   1.0000
     1.0000   1.0000   1.0000   1.0000   1.0000   1.0000   1.0000   1.0000
     1.0000   1.0000   1.0000   1.0000   1.0000   1.0000   1.0000   1.0000
     1.0000   1.0000   1.0000   1.0000   1.0000   1.0000   1.0000   1.0000
     1.0000   1.0000   1.0000   1.0000   1.0000   1.0000   1.0000   1.0000
     1.0000   1.0000   1.0000   1.0000   1.0000   1.0000   1.0000   1.0000
     1.0000   1.0000   1.0000   1.0000   1.0000   1.0000   1.0000   1.0000
    -0.0345  -0.0345  -0.0345  -0.0345  -0.0000  -0.0000  -0.0000  -0.0000
    -0.0000  -0.0000  -0.0000  -0.0000  -0.0000  -0.0000

          k = 0.0000 0.1000 0.0000 (  5371 PWs)   bands (ev):

   -79.4360 -79.4360 -79.4347 -79.4347 -46.2749 -46.2749 -46.2647 -46.2647
   -32.8134 -32.8134 -32.8085 -32.8085 -32.6638 -32.6638 -32.6449 -32.6449
    -7.0623  -7.0623  -5.9442  -5.9442  -5.0611  -5.0611  -4.8669  -4.8669
     4.3289   4.3289   4.5429   4.5429   6.0381   6.0381   6.1445   6.1445
     6.3047   6.3047   8.7348   8.7348   8.7520   8.7520   9.0167   9.0167
    10.1047  10.1047  10.5924  10.5924  10.7676  10.7676  11.2377  11.2377
    11.3432  11.3432  11.5259  11.5259  11.6317  11.6317  11.7524  11.7524
    12.1737  12.1737  14.7744  14.7744  14.9742  14.9742  17.6298  17.6298
    17.9696  17.9696  18.0579  18.0579  19.3019  19.3019

     occupation numbers 
     1.0000   1.0000   1.0000   1.0000   1.0000   1.0000   1.0000   1.0000
     1.0000   1.0000   1.0000   1.0000   1.0000   1.0000   1.0000   1.0000
     1.0000   1.0000   1.0000   1.0000   1.0000   1.0000   1.0000   1.0000
     1.0000   1.0000   1.0000   1.0000   1.0000   1.0000   1.0000   1.0000
     1.0000   1.0000   1.0000   1.0000   1.0000   1.0000   1.0000   1.0000
     1.0000   1.0000   1.0000   1.0000   1.0000   1.0000   1.0000   1.0000
     1.0000   1.0000   1.0000   1.0000   1.0000   1.0000   1.0000   1.0000
     1.0000   1.0000  -0.0000  -0.0000  -0.0000  -0.0000  -0.0000  -0.0000
    -0.0000  -0.0000  -0.0000  -0.0000  -0.0000  -0.0000

          k = 0.0000 0.1000-0.7124 (  5376 PWs)   bands (ev):

   -79.4330 -79.4330 -79.4330 -79.4330 -46.2814 -46.2814 -46.2808 -46.2808
   -32.8733 -32.8733 -32.8640 -32.8640 -32.6701 -32.6701 -32.6641 -32.6641
    -5.7780  -5.7780  -5.7639  -5.7639  -5.4477  -5.4477  -5.3831  -5.3831
     5.7016   5.7016   5.7302   5.7302   6.4271   6.4271   6.4948   6.4948
     7.2888   7.2888   7.3020   7.3020   8.1072   8.1072   8.2251   8.2251
     8.6281   8.6281   8.6650   8.6650   9.8619   9.8619   9.8919   9.8919
    11.8487  11.8487  11.8775  11.8775  12.8601  12.8601  13.0134  13.0134
    14.0076  14.0076  14.2179  14.2179  15.7456  15.7456  15.8577  15.8577
    16.7943  16.7943  16.9777  16.9777  22.9145  22.9430

     occupation numbers 
     1.0000   1.0000   1.0000   1.0000   1.0000   1.0000   1.0000   1.0000
     1.0000   1.0000   1.0000   1.0000   1.0000   1.0000   1.0000   1.0000
     1.0000   1.0000   1.0000   1.0000   1.0000   1.0000   1.0000   1.0000
     1.0000   1.0000   1.0000   1.0000   1.0000   1.0000   1.0000   1.0000
     1.0000   1.0000   1.0000   1.0000   1.0000   1.0000   1.0000   1.0000
     1.0000   1.0000   1.0000   1.0000   1.0000   1.0000   1.0000   1.0000
     1.0000   1.0000   1.0000   1.0000   1.0000   1.0000   1.0000   1.0000
     0.4533   0.4533  -0.0000  -0.0000  -0.0000  -0.0000  -0.0000  -0.0000
    -0.0000  -0.0000  -0.0000  -0.0000  -0.0000  -0.0000

          k = 0.0000 0.2000 0.0000 (  5363 PWs)   bands (ev):

   -79.4359 -79.4359 -79.4348 -79.4348 -46.2741 -46.2741 -46.2655 -46.2655
   -32.8123 -32.8123 -32.8081 -32.8081 -32.6632 -32.6632 -32.6472 -32.6472
    -6.9517  -6.9517  -5.9383  -5.9383  -5.1550  -5.1550  -4.9639  -4.9639
     4.6016   4.6016   4.7543   4.7543   6.0772   6.0772   6.1682   6.1682
     6.4923   6.4923   8.3670   8.3670   8.5309   8.5309   8.7401   8.7401
     9.7042   9.7042   9.9617   9.9617  10.6133  10.6133  11.4215  11.4215
    11.5358  11.5358  11.6404  11.6404  11.8967  11.8967  12.0235  12.0235
    12.4579  12.4579  14.7398  14.7398  15.2461  15.2461  17.5190  17.5190
    17.8237  17.8237  18.5434  18.5434  19.0385  19.0385

     occupation numbers 
     1.0000   1.0000   1.0000   1.0000   1.0000   1.0000   1.0000   1.0000
     1.0000   1.0000   1.0000   1.0000   1.0000   1.0000   1.0000   1.0000
     1.0000   1.0000   1.0000   1.0000   1.0000   1.0000   1.0000   1.0000
     1.0000   1.0000   1.0000   1.0000   1.0000   1.0000   1.0000   1.0000
     1.0000   1.0000   1.0000   1.0000   1.0000   1.0000   1.0000   1.0000
     1.0000   1.0000   1.0000   1.0000   1.0000   1.0000   1.0000   1.0000
     1.0000   1.0000   1.0000   1.0000   1.0000   1.0000   1.0000   1.0000
     1.0000   1.0000  -0.0000  -0.0000  -0.0000  -0.0000  -0.0000  -0.0000
    -0.0000  -0.0000  -0.0000  -0.0000  -0.0000  -0.0000

          k = 0.0000 0.2000-0.7124 (  5378 PWs)   bands (ev):

   -79.4330 -79.4330 -79.4330 -79.4330 -46.2816 -46.2816 -46.2805 -46.2805
   -32.8776 -32.8776 -32.8599 -32.8599 -32.6728 -32.6728 -32.6614 -32.6614
    -5.8039  -5.8039  -5.7878  -5.7878  -5.4417  -5.4417  -5.3297  -5.3297
     5.6826   5.6826   5.7585   5.7585   6.1387   6.1387   6.2523   6.2523
     7.5173   7.5173   7.5948   7.5948   8.0663   8.0663   8.2785   8.2785
     8.9405   8.9405   9.0027   9.0027   9.6880   9.6880   9.7275   9.7275
    11.8484  11.8484  11.8655  11.8655  12.4957  12.4957  12.7467  12.7467
    14.0240  14.0240  14.3404  14.3404  15.4252  15.4252  15.5082  15.5082
    17.2755  17.2755  17.4785  17.4785  22.9472  22.9535

     occupation numbers 
     1.0000   1.0000   1.0000   1.0000   1.0000   1.0000   1.0000   1.0000
     1.0000   1.0000   1.0000   1.0000   1.0000   1.0000   1.0000   1.0000
     1.0000   1.0000   1.0000   1.0000   1.0000   1.0000   1.0000   1.0000
     1.0000   1.0000   1.0000   1.0000   1.0000   1.0000   1.0000   1.0000
     1.0000   1.0000   1.0000   1.0000   1.0000   1.0000   1.0000   1.0000
     1.0000   1.0000   1.0000   1.0000   1.0000   1.0000   1.0000   1.0000
     1.0000   1.0000   1.0000   1.0000   1.0000   1.0000   1.0000   1.0000
     0.2606   0.2606  -0.0000  -0.0000  -0.0000  -0.0000  -0.0000  -0.0000
    -0.0000  -0.0000  -0.0000  -0.0000  -0.0000  -0.0000

          k = 0.0000 0.3000 0.0000 (  5376 PWs)   bands (ev):

   -79.4357 -79.4357 -79.4350 -79.4350 -46.2730 -46.2730 -46.2667 -46.2667
   -32.8108 -32.8108 -32.8079 -32.8079 -32.6621 -32.6621 -32.6504 -32.6504
    -6.7767  -6.7767  -5.9683  -5.9683  -5.2727  -5.2727  -5.0808  -5.0808
     4.9893   4.9893   5.0774   5.0774   6.1296   6.1296   6.1982   6.1982
     6.8013   6.8013   7.8849   7.8849   8.0483   8.0483   8.6307   8.6307
     9.2275   9.2275   9.3345   9.3345  10.5721  10.5721  11.2285  11.2285
    11.8098  11.8098  11.9160  11.9160  12.1397  12.1397  12.3030  12.3030
    12.7985  12.7985  14.4186  14.4186  15.8843  15.8843  17.3806  17.3806
    17.6317  17.6317  18.6027  18.6027  19.2401  19.2401

     occupation numbers 
     1.0000   1.0000   1.0000   1.0000   1.0000   1.0000   1.0000   1.0000
     1.0000   1.0000   1.0000   1.0000   1.0000   1.0000   1.0000   1.0000
     1.0000   1.0000   1.0000   1.0000   1.0000   1.0000   1.0000   1.0000
     1.0000   1.0000   1.0000   1.0000   1.0000   1.0000   1.0000   1.0000
     1.0000   1.0000   1.0000   1.0000   1.0000   1.0000   1.0000   1.0000
     1.0000   1.0000   1.0000   1.0000   1.0000   1.0000   1.0000   1.0000
     1.0000   1.0000   1.0000   1.0000   1.0000   1.0000   1.0000   1.0000
     1.0000   1.0000  -0.0000  -0.0000  -0.0000  -0.0000  -0.0000  -0.0000
    -0.0000  -0.0000  -0.0000  -0.0000  -0.0000  -0.0000

          k = 0.0000 0.3000-0.7124 (  5356 PWs)   bands (ev):

   -79.4330 -79.4330 -79.4330 -79.4330 -46.2819 -46.2819 -46.2803 -46.2803
   -32.8811 -32.8811 -32.8567 -32.8567 -32.6749 -32.6749 -32.6593 -32.6593
    -5.8281  -5.8281  -5.8186  -5.8186  -5.4228  -5.4228  -5.2815  -5.2815
     5.5902   5.5902   5.6679   5.6679   6.0679   6.0679   6.1589   6.1589
     7.5871   7.5871   7.8304   7.8304   8.1400   8.1400   8.3376   8.3376
     9.2449   9.2449   9.2681   9.2681   9.6574   9.6574   9.6740   9.6740
    11.7442  11.7442  11.8464  11.8464  12.0217  12.0217  12.4221  12.4221
    14.0722  14.0722  14.4210  14.4210  15.1825  15.1825  15.2397  15.2397
    17.7348  17.7348  17.9286  17.9286  22.9993  23.0004

     occupation numbers 
     1.0000   1.0000   1.0000   1.0000   1.0000   1.0000   1.0000   1.0000
     1.0000   1.0000   1.0000   1.0000   1.0000   1.0000   1.0000   1.0000
     1.0000   1.0000   1.0000   1.0000   1.0000   1.0000   1.0000   1.0000
     1.0000   1.0000   1.0000   1.0000   1.0000   1.0000   1.0000   1.0000
     1.0000   1.0000   1.0000   1.0000   1.0000   1.0000   1.0000   1.0000
     1.0000   1.0000   1.0000   1.0000   1.0000   1.0000   1.0000   1.0000
     1.0000   1.0000   1.0000   1.0000   1.0000   1.0000   1.0000   1.0000
    -0.0256  -0.0256  -0.0000  -0.0000  -0.0000  -0.0000  -0.0000  -0.0000
    -0.0000  -0.0000  -0.0000  -0.0000  -0.0000  -0.0000

          k = 0.0000 0.4000 0.0000 (  5370 PWs)   bands (ev):

   -79.4355 -79.4355 -79.4351 -79.4351 -46.2715 -46.2715 -46.2682 -46.2682
   -32.8094 -32.8094 -32.8078 -32.8078 -32.6602 -32.6602 -32.6540 -32.6540
    -6.5531  -6.5531  -6.0926  -6.0926  -5.3277  -5.3277  -5.1953  -5.1953
     5.3796   5.3796   5.4370   5.4370   6.1875   6.1875   6.2232   6.2232
     7.1669   7.1669   7.5128   7.5128   7.5349   7.5349   8.5032   8.5032
     8.6533   8.6533   8.9958   8.9958  10.6423  10.6423  11.0054  11.0054
    12.0065  12.0065  12.0973  12.0973  12.3298  12.3298  12.4715  12.4715
    13.1933  13.1933  14.0316  14.0316  16.5967  16.5967  17.2790  17.2790
    17.4578  17.4578  18.0496  18.0496  20.0060  20.0060

     occupation numbers 
     1.0000   1.0000   1.0000   1.0000   1.0000   1.0000   1.0000   1.0000
     1.0000   1.0000   1.0000   1.0000   1.0000   1.0000   1.0000   1.0000
     1.0000   1.0000   1.0000   1.0000   1.0000   1.0000   1.0000   1.0000
     1.0000   1.0000   1.0000   1.0000   1.0000   1.0000   1.0000   1.0000
     1.0000   1.0000   1.0000   1.0000   1.0000   1.0000   1.0000   1.0000
     1.0000   1.0000   1.0000   1.0000   1.0000   1.0000   1.0000   1.0000
     1.0000   1.0000   1.0000   1.0000   1.0000   1.0000   1.0000   1.0000
     1.0000   1.0000   0.1840   0.1840  -0.0000  -0.0000  -0.0000  -0.0000
    -0.0000  -0.0000  -0.0000  -0.0000  -0.0000  -0.0000

          k = 0.0000 0.4000-0.7124 (  5358 PWs)   bands (ev):

   -79.4330 -79.4330 -79.4330 -79.4330 -46.2820 -46.2820 -46.2802 -46.2802
   -32.8833 -32.8833 -32.8546 -32.8546 -32.6763 -32.6763 -32.6579 -32.6579
    -5.8447  -5.8447  -5.8423  -5.8423  -5.4058  -5.4058  -5.2486  -5.2486
     5.4809   5.4809   5.5322   5.5322   6.1353   6.1353   6.1641   6.1641
     7.5383   7.5383   7.9912   7.9912   8.3279   8.3279   8.4561   8.4561
     9.0403   9.0403   9.0698   9.0698  10.1398  10.1398  10.1765  10.1765
    11.3938  11.3938  11.4507  11.4507  11.8681  11.8681  12.2420  12.2420
    14.1109  14.1109  14.4592  14.4592  15.0323  15.0323  15.0808  15.0808
    18.0668  18.0668  18.2445  18.2445  23.0802  23.0818

     occupation numbers 
     1.0000   1.0000   1.0000   1.0000   1.0000   1.0000   1.0000   1.0000
     1.0000   1.0000   1.0000   1.0000   1.0000   1.0000   1.0000   1.0000
     1.0000   1.0000   1.0000   1.0000   1.0000   1.0000   1.0000   1.0000
     1.0000   1.0000   1.0000   1.0000   1.0000   1.0000   1.0000   1.0000
     1.0000   1.0000   1.0000   1.0000   1.0000   1.0000   1.0000   1.0000
     1.0000   1.0000   1.0000   1.0000   1.0000   1.0000   1.0000   1.0000
     1.0000   1.0000   1.0000   1.0000   1.0000   1.0000   1.0000   1.0000
    -0.0243  -0.0243  -0.0000  -0.0000  -0.0000  -0.0000  -0.0000  -0.0000
    -0.0000  -0.0000  -0.0000  -0.0000  -0.0000  -0.0000

          k = 0.0000-0.5000 0.0000 (  5380 PWs)   bands (ev):

   -79.4353 -79.4353 -79.4353 -79.4353 -46.2698 -46.2698 -46.2698 -46.2698
   -32.8083 -32.8083 -32.8083 -32.8083 -32.6575 -32.6575 -32.6575 -32.6575
    -6.3089  -6.3089  -6.3089  -6.3089  -5.2888  -5.2888  -5.2888  -5.2888
     5.5938   5.5938   5.5938   5.5938   6.2296   6.2296   6.2296   6.2296
     7.2156   7.2156   7.2156   7.2156   7.8694   7.8694   7.8694   7.8694
     8.7615   8.7615   8.7615   8.7615  10.7970  10.7970  10.7970  10.7970
    12.1127  12.1127  12.1127  12.1127  12.4704  12.4704  12.4704  12.4704
    13.6144  13.6144  13.6144  13.6144  17.1843  17.1843  17.1843  17.1843
    17.4820  17.4820  17.4820  17.4820  20.7562  20.7562

     occupation numbers 
     1.0000   1.0000   1.0000   1.0000   1.0000   1.0000   1.0000   1.0000
     1.0000   1.0000   1.0000   1.0000   1.0000   1.0000   1.0000   1.0000
     1.0000   1.0000   1.0000   1.0000   1.0000   1.0000   1.0000   1.0000
     1.0000   1.0000   1.0000   1.0000   1.0000   1.0000   1.0000   1.0000
     1.0000   1.0000   1.0000   1.0000   1.0000   1.0000   1.0000   1.0000
     1.0000   1.0000   1.0000   1.0000   1.0000   1.0000   1.0000   1.0000
     1.0000   1.0000   1.0000   1.0000   1.0000   1.0000   1.0000   1.0000
     1.0000   1.0000   1.0000   1.0000  -0.0000  -0.0000  -0.0000  -0.0000
    -0.0000  -0.0000  -0.0000  -0.0000  -0.0000  -0.0000

          k = 0.0000-0.5000-0.7124 (  5360 PWs)   bands (ev):

   -79.4330 -79.4330 -79.4330 -79.4330 -46.2821 -46.2821 -46.2801 -46.2801
   -32.8841 -32.8841 -32.8539 -32.8539 -32.6767 -32.6767 -32.6574 -32.6574
    -5.8509  -5.8509  -5.8505  -5.8505  -5.3992  -5.3992  -5.2370  -5.2370
     5.4367   5.4367   5.4796   5.4796   6.1734   6.1734   6.1753   6.1753
     7.5047   7.5047   8.0428   8.0428   8.4592   8.4592   8.6084   8.6084
     8.8279   8.8279   8.9219   8.9219  10.5852  10.5852  10.5969  10.5969
    11.0118  11.0118  11.0232  11.0232  11.8678  11.8678  12.2005  12.2005
    14.1250  14.1250  14.4683  14.4683  14.9815  14.9815  15.0301  15.0301
    18.1889  18.1889  18.3589  18.3589  23.1291  23.1293

     occupation numbers 
     1.0000   1.0000   1.0000   1.0000   1.0000   1.0000   1.0000   1.0000
     1.0000   1.0000   1.0000   1.0000   1.0000   1.0000   1.0000   1.0000
     1.0000   1.0000   1.0000   1.0000   1.0000   1.0000   1.0000   1.0000
     1.0000   1.0000   1.0000   1.0000   1.0000   1.0000   1.0000   1.0000
     1.0000   1.0000   1.0000   1.0000   1.0000   1.0000   1.0000   1.0000
     1.0000   1.0000   1.0000   1.0000   1.0000   1.0000   1.0000   1.0000
     1.0000   1.0000   1.0000   1.0000   1.0000   1.0000   1.0000   1.0000
    -0.0151  -0.0151  -0.0000  -0.0000  -0.0000  -0.0000  -0.0000  -0.0000
    -0.0000  -0.0000  -0.0000  -0.0000  -0.0000  -0.0000

          k = 0.1000 0.1000 0.0000 (  5355 PWs)   bands (ev):

   -79.4359 -79.4359 -79.4348 -79.4348 -46.2746 -46.2746 -46.2650 -46.2650
   -32.8131 -32.8131 -32.8083 -32.8083 -32.6636 -32.6636 -32.6456 -32.6456
    -7.0270  -7.0270  -5.9404  -5.9404  -5.1023  -5.1023  -4.8887  -4.8887
     4.3270   4.3270   4.7039   4.7039   6.0442   6.0442   6.1576   6.1576
     6.3664   6.3664   8.4553   8.4553   8.7172   8.7172   9.0317   9.0317
    10.0080  10.0080  10.5004  10.5004  10.6174  10.6174  11.1130  11.1130
    11.4910  11.4910  11.5227  11.5227  11.7635  11.7635  11.8641  11.8641
    12.3068  12.3068  14.8932  14.8932  14.9061  14.9061  17.5756  17.5756
    17.9429  17.9429  18.2435  18.2435  19.2094  19.2094

     occupation numbers 
     1.0000   1.0000   1.0000   1.0000   1.0000   1.0000   1.0000   1.0000
     1.0000   1.0000   1.0000   1.0000   1.0000   1.0000   1.0000   1.0000
     1.0000   1.0000   1.0000   1.0000   1.0000   1.0000   1.0000   1.0000
     1.0000   1.0000   1.0000   1.0000   1.0000   1.0000   1.0000   1.0000
     1.0000   1.0000   1.0000   1.0000   1.0000   1.0000   1.0000   1.0000
     1.0000   1.0000   1.0000   1.0000   1.0000   1.0000   1.0000   1.0000
     1.0000   1.0000   1.0000   1.0000   1.0000   1.0000   1.0000   1.0000
     1.0000   1.0000  -0.0000  -0.0000  -0.0000  -0.0000  -0.0000  -0.0000
    -0.0000  -0.0000  -0.0000  -0.0000  -0.0000  -0.0000

          k = 0.1000 0.1000-0.7124 (  5374 PWs)   bands (ev):

   -79.4330 -79.4330 -79.4330 -79.4330 -46.2815 -46.2815 -46.2807 -46.2807
   -32.8750 -32.8750 -32.8624 -32.8624 -32.6712 -32.6712 -32.6631 -32.6631
    -5.8053  -5.8053  -5.7465  -5.7465  -5.4605  -5.4605  -5.3569  -5.3569
     5.6677   5.6677   5.7853   5.7853   6.2179   6.2179   6.6248   6.6248
     6.9038   6.9038   7.7940   7.7940   8.0870   8.0870   8.2406   8.2406
     8.6196   8.6196   8.8552   8.8552   9.6806   9.6806   9.9496   9.9496
    11.8453  11.8453  11.8810  11.8810  12.6787  12.6787  13.0464  13.0464
    13.8815  13.8815  14.3348  14.3348  15.4309  15.4309  16.0704  16.0704
    16.6535  16.6535  17.3184  17.3184  22.9054  22.9066

     occupation numbers 
     1.0000   1.0000   1.0000   1.0000   1.0000   1.0000   1.0000   1.0000
     1.0000   1.0000   1.0000   1.0000   1.0000   1.0000   1.0000   1.0000
     1.0000   1.0000   1.0000   1.0000   1.0000   1.0000   1.0000   1.0000
     1.0000   1.0000   1.0000   1.0000   1.0000   1.0000   1.0000   1.0000
     1.0000   1.0000   1.0000   1.0000   1.0000   1.0000   1.0000   1.0000
     1.0000   1.0000   1.0000   1.0000   1.0000   1.0000   1.0000   1.0000
     1.0000   1.0000   1.0000   1.0000   1.0000   1.0000   1.0000   1.0000
     1.0145   1.0145  -0.0000  -0.0000  -0.0000  -0.0000  -0.0000  -0.0000
    -0.0000  -0.0000  -0.0000  -0.0000  -0.0000  -0.0000

          k = 0.1000 0.2000 0.0000 (  5372 PWs)   bands (ev):

   -79.4359 -79.4359 -79.4348 -79.4348 -46.2739 -46.2739 -46.2657 -46.2657
   -32.8122 -32.8122 -32.8080 -32.8080 -32.6630 -32.6630 -32.6477 -32.6477
    -6.9235  -6.9235  -5.9401  -5.9401  -5.2037  -5.2037  -4.9529  -4.9529
     4.4315   4.4315   5.0459   5.0459   6.0634   6.0634   6.1888   6.1888
     6.5511   6.5511   7.9549   7.9549   8.6286   8.6286   8.8567   8.8567
     9.7362   9.7362  10.0417  10.0417  10.4356  10.4356  11.2963  11.2963
    11.3874  11.3874  11.6750  11.6750  11.9836  11.9836  12.1544  12.1544
    12.5731  12.5731  14.7063  14.7063  15.2590  15.2590  17.4496  17.4496
    17.8525  17.8525  18.7349  18.7349  18.9426  18.9426

     occupation numbers 
     1.0000   1.0000   1.0000   1.0000   1.0000   1.0000   1.0000   1.0000
     1.0000   1.0000   1.0000   1.0000   1.0000   1.0000   1.0000   1.0000
     1.0000   1.0000   1.0000   1.0000   1.0000   1.0000   1.0000   1.0000
     1.0000   1.0000   1.0000   1.0000   1.0000   1.0000   1.0000   1.0000
     1.0000   1.0000   1.0000   1.0000   1.0000   1.0000   1.0000   1.0000
     1.0000   1.0000   1.0000   1.0000   1.0000   1.0000   1.0000   1.0000
     1.0000   1.0000   1.0000   1.0000   1.0000   1.0000   1.0000   1.0000
     1.0000   1.0000  -0.0000  -0.0000  -0.0000  -0.0000  -0.0000  -0.0000
    -0.0000  -0.0000  -0.0000  -0.0000  -0.0000  -0.0000

          k = 0.1000 0.2000-0.7124 (  5360 PWs)   bands (ev):

   -79.4330 -79.4330 -79.4330 -79.4330 -46.2817 -46.2817 -46.2805 -46.2805
   -32.8780 -32.8780 -32.8595 -32.8595 -32.6731 -32.6731 -32.6612 -32.6612
    -5.8342  -5.8342  -5.7492  -5.7492  -5.4618  -5.4618  -5.3150  -5.3150
     5.6149   5.6149   5.8441   5.8441   6.0563   6.0563   6.3539   6.3539
     7.0184   7.0184   7.9996   7.9996   8.1897   8.1897   8.3051   8.3051
     8.8567   8.8567   9.1890   9.1890   9.4033   9.4033   9.9149   9.9149
    11.8421  11.8421  11.8580  11.8580  12.3663  12.3663  12.8607  12.8607
    13.8379  13.8379  14.4373  14.4373  15.1614  15.1614  15.8382  15.8382
    17.0117  17.0117  17.7273  17.7273  22.9171  22.9175

     occupation numbers 
     1.0000   1.0000   1.0000   1.0000   1.0000   1.0000   1.0000   1.0000
     1.0000   1.0000   1.0000   1.0000   1.0000   1.0000   1.0000   1.0000
     1.0000   1.0000   1.0000   1.0000   1.0000   1.0000   1.0000   1.0000
     1.0000   1.0000   1.0000   1.0000   1.0000   1.0000   1.0000   1.0000
     1.0000   1.0000   1.0000   1.0000   1.0000   1.0000   1.0000   1.0000
     1.0000   1.0000   1.0000   1.0000   1.0000   1.0000   1.0000   1.0000
     1.0000   1.0000   1.0000   1.0000   1.0000   1.0000   1.0000   1.0000
     1.0015   1.0015  -0.0000  -0.0000  -0.0000  -0.0000  -0.0000  -0.0000
    -0.0000  -0.0000  -0.0000  -0.0000  -0.0000  -0.0000

          k = 0.1000 0.3000 0.0000 (  5380 PWs)   bands (ev):

   -79.4357 -79.4357 -79.4350 -79.4350 -46.2728 -46.2728 -46.2668 -46.2668
   -32.8110 -32.8110 -32.8078 -32.8078 -32.6619 -32.6619 -32.6506 -32.6506
    -6.7601  -6.7601  -5.9824  -5.9824  -5.3023  -5.3023  -5.0504  -5.0504
     4.6759   4.6759   5.4232   5.4232   6.0988   6.0988   6.2209   6.2209
     6.8528   6.8528   7.4704   7.4704   8.4165   8.4165   8.6313   8.6313
     9.3543   9.3543   9.4254   9.4254  10.4009  10.4009  11.1692  11.1692
    11.6245  11.6245  11.8971  11.8971  12.1403  12.1403  12.4000  12.4000
    12.8897  12.8897  14.4119  14.4119  15.8220  15.8220  17.3331  17.3331
    17.6965  17.6965  18.5018  18.5018  19.4246  19.4246

     occupation numbers 
     1.0000   1.0000   1.0000   1.0000   1.0000   1.0000   1.0000   1.0000
     1.0000   1.0000   1.0000   1.0000   1.0000   1.0000   1.0000   1.0000
     1.0000   1.0000   1.0000   1.0000   1.0000   1.0000   1.0000   1.0000
     1.0000   1.0000   1.0000   1.0000   1.0000   1.0000   1.0000   1.0000
     1.0000   1.0000   1.0000   1.0000   1.0000   1.0000   1.0000   1.0000
     1.0000   1.0000   1.0000   1.0000   1.0000   1.0000   1.0000   1.0000
     1.0000   1.0000   1.0000   1.0000   1.0000   1.0000   1.0000   1.0000
     1.0000   1.0000  -0.0000  -0.0000  -0.0000  -0.0000  -0.0000  -0.0000
    -0.0000  -0.0000  -0.0000  -0.0000  -0.0000  -0.0000

          k = 0.1000 0.3000-0.7124 (  5362 PWs)   bands (ev):

   -79.4330 -79.4330 -79.4330 -79.4330 -46.2819 -46.2819 -46.2803 -46.2803
   -32.8808 -32.8808 -32.8569 -32.8569 -32.6748 -32.6748 -32.6595 -32.6595
    -5.8512  -5.8512  -5.7761  -5.7761  -5.4417  -5.4417  -5.2800  -5.2800
     5.5270   5.5270   5.7746   5.7746   6.0319   6.0319   6.1860   6.1860
     7.2218   7.2218   7.9368   7.9368   8.2542   8.2542   8.5121   8.5121
     8.9962   8.9962   9.4057   9.4057   9.4918   9.4918   9.9688   9.9688
    11.6809  11.6809  11.8499  11.8499  12.0442  12.0442  12.4991  12.4991
    13.9249  13.9249  14.4612  14.4612  15.0138  15.0138  15.5098  15.5098
    17.5034  17.5034  18.0582  18.0582  22.9688  22.9705

     occupation numbers 
     1.0000   1.0000   1.0000   1.0000   1.0000   1.0000   1.0000   1.0000
     1.0000   1.0000   1.0000   1.0000   1.0000   1.0000   1.0000   1.0000
     1.0000   1.0000   1.0000   1.0000   1.0000   1.0000   1.0000   1.0000
     1.0000   1.0000   1.0000   1.0000   1.0000   1.0000   1.0000   1.0000
     1.0000   1.0000   1.0000   1.0000   1.0000   1.0000   1.0000   1.0000
     1.0000   1.0000   1.0000   1.0000   1.0000   1.0000   1.0000   1.0000
     1.0000   1.0000   1.0000   1.0000   1.0000   1.0000   1.0000   1.0000
     1.0348   1.0348  -0.0000  -0.0000  -0.0000  -0.0000  -0.0000  -0.0000
    -0.0000  -0.0000  -0.0000  -0.0000  -0.0000  -0.0000

          k = 0.1000 0.4000 0.0000 (  5380 PWs)   bands (ev):

   -79.4355 -79.4355 -79.4352 -79.4352 -46.2714 -46.2714 -46.2683 -46.2683
   -32.8097 -32.8097 -32.8079 -32.8079 -32.6599 -32.6599 -32.6540 -32.6540
    -6.5520  -6.5520  -6.1155  -6.1155  -5.3248  -5.3248  -5.1626  -5.1626
     5.0268   5.0268   5.6027   5.6027   6.1461   6.1461   6.2332   6.2332
     7.1553   7.1553   7.3538   7.3538   7.9736   7.9736   8.5927   8.5927
     8.7290   8.7290   9.0832   9.0832  10.5007  10.5007  10.9264  10.9264
    11.8995  11.8995  12.0817  12.0817  12.2438  12.2438  12.4890  12.4890
    13.2618  13.2618  14.0541  14.0541  16.4879  16.4879  17.2944  17.2944
    17.5046  17.5046  17.9564  17.9564  20.1686  20.1686

     occupation numbers 
     1.0000   1.0000   1.0000   1.0000   1.0000   1.0000   1.0000   1.0000
     1.0000   1.0000   1.0000   1.0000   1.0000   1.0000   1.0000   1.0000
     1.0000   1.0000   1.0000   1.0000   1.0000   1.0000   1.0000   1.0000
     1.0000   1.0000   1.0000   1.0000   1.0000   1.0000   1.0000   1.0000
     1.0000   1.0000   1.0000   1.0000   1.0000   1.0000   1.0000   1.0000
     1.0000   1.0000   1.0000   1.0000   1.0000   1.0000   1.0000   1.0000
     1.0000   1.0000   1.0000   1.0000   1.0000   1.0000   1.0000   1.0000
     1.0000   1.0000   0.0270   0.0270  -0.0000  -0.0000  -0.0000  -0.0000
    -0.0000  -0.0000  -0.0000  -0.0000  -0.0000  -0.0000

          k = 0.1000 0.4000-0.7124 (  5362 PWs)   bands (ev):

   -79.4330 -79.4330 -79.4330 -79.4330 -46.2820 -46.2820 -46.2802 -46.2802
   -32.8827 -32.8827 -32.8552 -32.8552 -32.6759 -32.6759 -32.6583 -32.6583
    -5.8526  -5.8526  -5.8101  -5.8101  -5.4189  -5.4189  -5.2581  -5.2581
     5.4641   5.4641   5.6026   5.6026   6.0853   6.0853   6.1754   6.1754
     7.4056   7.4056   7.8912   7.8912   8.2884   8.2884   8.5889   8.5889
     8.8511   8.8511   9.3286   9.3286  10.0221  10.0221  10.3920  10.3920
    11.2906  11.2906  11.6308  11.6308  11.8778  11.8778  12.2632  12.2632
    14.0264  14.0264  14.4387  14.4387  14.9824  14.9824  15.2400  15.2400
    17.9151  17.9151  18.2426  18.2426  23.0658  23.0658

     occupation numbers 
     1.0000   1.0000   1.0000   1.0000   1.0000   1.0000   1.0000   1.0000
     1.0000   1.0000   1.0000   1.0000   1.0000   1.0000   1.0000   1.0000
     1.0000   1.0000   1.0000   1.0000   1.0000   1.0000   1.0000   1.0000
     1.0000   1.0000   1.0000   1.0000   1.0000   1.0000   1.0000   1.0000
     1.0000   1.0000   1.0000   1.0000   1.0000   1.0000   1.0000   1.0000
     1.0000   1.0000   1.0000   1.0000   1.0000   1.0000   1.0000   1.0000
     1.0000   1.0000   1.0000   1.0000   1.0000   1.0000   1.0000   1.0000
     0.2351   0.2351  -0.0000  -0.0000  -0.0000  -0.0000  -0.0000  -0.0000
    -0.0000  -0.0000  -0.0000  -0.0000  -0.0000  -0.0000

          k = 0.1000-0.5000 0.0000 (  5372 PWs)   bands (ev):

   -79.4353 -79.4353 -79.4353 -79.4353 -46.2698 -46.2698 -46.2698 -46.2698
   -32.8086 -32.8086 -32.8086 -32.8086 -32.6573 -32.6573 -32.6573 -32.6573
    -6.3236  -6.3236  -6.3236  -6.3236  -5.2651  -5.2651  -5.2651  -5.2651
     5.4021   5.4021   5.4021   5.4021   6.1959   6.1959   6.1959   6.1959
     7.4007   7.4007   7.4007   7.4007   7.9996   7.9996   7.9996   7.9996
     8.8295   8.8295   8.8295   8.8295  10.6892  10.6892  10.6892  10.6892
    12.0650  12.0650  12.0650  12.0650  12.4063  12.4063  12.4063  12.4063
    13.6618  13.6618  13.6618  13.6618  17.1142  17.1142  17.1142  17.1142
    17.4864  17.4864  17.4864  17.4864  20.8855  20.8855

     occupation numbers 
     1.0000   1.0000   1.0000   1.0000   1.0000   1.0000   1.0000   1.0000
     1.0000   1.0000   1.0000   1.0000   1.0000   1.0000   1.0000   1.0000
     1.0000   1.0000   1.0000   1.0000   1.0000   1.0000   1.0000   1.0000
     1.0000   1.0000   1.0000   1.0000   1.0000   1.0000   1.0000   1.0000
     1.0000   1.0000   1.0000   1.0000   1.0000   1.0000   1.0000   1.0000
     1.0000   1.0000   1.0000   1.0000   1.0000   1.0000   1.0000   1.0000
     1.0000   1.0000   1.0000   1.0000   1.0000   1.0000   1.0000   1.0000
     1.0000   1.0000   1.0000   1.0000  -0.0000  -0.0000  -0.0000  -0.0000
    -0.0000  -0.0000  -0.0000  -0.0000  -0.0000  -0.0000

          k = 0.1000-0.5000-0.7124 (  5356 PWs)   bands (ev):

   -79.4330 -79.4330 -79.4330 -79.4330 -46.2820 -46.2820 -46.2802 -46.2802
   -32.8833 -32.8833 -32.8546 -32.8546 -32.6763 -32.6763 -32.6579 -32.6579
    -5.8403  -5.8403  -5.8357  -5.8357  -5.4094  -5.4094  -5.2508  -5.2508
     5.4691   5.4691   5.5025   5.5025   6.1349   6.1349   6.1610   6.1610
     7.4905   7.4905   7.8815   7.8815   8.3664   8.3664   8.4093   8.4093
     9.0357   9.0357   9.1224   9.1224  10.5443  10.5443  10.5509  10.5509
    11.1581  11.1581  11.1618  11.1618  11.8753  11.8753  12.2125  12.2125
    14.0720  14.0720  14.4207  14.4207  15.0422  15.0422  15.0772  15.0772
    18.1082  18.1082  18.2683  18.2683  23.1442  23.1442

     occupation numbers 
     1.0000   1.0000   1.0000   1.0000   1.0000   1.0000   1.0000   1.0000
     1.0000   1.0000   1.0000   1.0000   1.0000   1.0000   1.0000   1.0000
     1.0000   1.0000   1.0000   1.0000   1.0000   1.0000   1.0000   1.0000
     1.0000   1.0000   1.0000   1.0000   1.0000   1.0000   1.0000   1.0000
     1.0000   1.0000   1.0000   1.0000   1.0000   1.0000   1.0000   1.0000
     1.0000   1.0000   1.0000   1.0000   1.0000   1.0000   1.0000   1.0000
     1.0000   1.0000   1.0000   1.0000   1.0000   1.0000   1.0000   1.0000
    -0.0254  -0.0254  -0.0000  -0.0000  -0.0000  -0.0000  -0.0000  -0.0000
    -0.0000  -0.0000  -0.0000  -0.0000  -0.0000  -0.0000

          k = 0.2000 0.2000 0.0000 (  5377 PWs)   bands (ev):

   -79.4358 -79.4358 -79.4349 -79.4349 -46.2733 -46.2733 -46.2663 -46.2663
   -32.8119 -32.8119 -32.8078 -32.8078 -32.6624 -32.6624 -32.6491 -32.6491
    -6.8411  -6.8411  -5.9602  -5.9602  -5.2884  -5.2884  -4.9604  -4.9604
     4.3557   4.3557   5.4308   5.4308   6.0497   6.0497   6.2221   6.2221
     6.7230   6.7230   7.4644   7.4644   8.5992   8.5992   8.9299   8.9299
     9.7281   9.7281   9.9861   9.9861  10.2179  10.2179  11.1224  11.1224
    11.2586  11.2586  11.6356  11.6356  12.1171  12.1171  12.3786  12.3786
    12.8211  12.8211  14.5848  14.5848  15.3936  15.3936  17.3437  17.3437
    17.8534  17.8534  18.6514  18.6514  19.2428  19.2428

     occupation numbers 
     1.0000   1.0000   1.0000   1.0000   1.0000   1.0000   1.0000   1.0000
     1.0000   1.0000   1.0000   1.0000   1.0000   1.0000   1.0000   1.0000
     1.0000   1.0000   1.0000   1.0000   1.0000   1.0000   1.0000   1.0000
     1.0000   1.0000   1.0000   1.0000   1.0000   1.0000   1.0000   1.0000
     1.0000   1.0000   1.0000   1.0000   1.0000   1.0000   1.0000   1.0000
     1.0000   1.0000   1.0000   1.0000   1.0000   1.0000   1.0000   1.0000
     1.0000   1.0000   1.0000   1.0000   1.0000   1.0000   1.0000   1.0000
     1.0000   1.0000  -0.0000  -0.0000  -0.0000  -0.0000  -0.0000  -0.0000
    -0.0000  -0.0000  -0.0000  -0.0000  -0.0000  -0.0000

          k = 0.2000 0.2000-0.7124 (  5378 PWs)   bands (ev):

   -79.4330 -79.4330 -79.4330 -79.4330 -46.2817 -46.2817 -46.2804 -46.2804
   -32.8790 -32.8790 -32.8586 -32.8586 -32.6737 -32.6737 -32.6606 -32.6606
    -5.8547  -5.8547  -5.7147  -5.7147  -5.4898  -5.4898  -5.2936  -5.2936
     5.5377   5.5377   5.8887   5.8887   6.0608   6.0608   6.4242   6.4242
     6.6334   6.6334   8.0167   8.0167   8.2793   8.2793   8.7873   8.7873
     8.8562   8.8562   9.0416   9.0416   9.4711   9.4711  10.0472  10.0472
    11.7749  11.7749  11.8521  11.8521  12.1840  12.1840  12.9367  12.9367
    13.5895  13.5895  14.5063  14.5063  14.9816  14.9816  16.0610  16.0610
    16.8592  16.8592  17.9837  17.9837  22.9109  22.9120

     occupation numbers 
     1.0000   1.0000   1.0000   1.0000   1.0000   1.0000   1.0000   1.0000
     1.0000   1.0000   1.0000   1.0000   1.0000   1.0000   1.0000   1.0000
     1.0000   1.0000   1.0000   1.0000   1.0000   1.0000   1.0000   1.0000
     1.0000   1.0000   1.0000   1.0000   1.0000   1.0000   1.0000   1.0000
     1.0000   1.0000   1.0000   1.0000   1.0000   1.0000   1.0000   1.0000
     1.0000   1.0000   1.0000   1.0000   1.0000   1.0000   1.0000   1.0000
     1.0000   1.0000   1.0000   1.0000   1.0000   1.0000   1.0000   1.0000
     1.0000   1.0000  -0.0000  -0.0000  -0.0000  -0.0000  -0.0000  -0.0000
    -0.0000  -0.0000  -0.0000  -0.0000  -0.0000  -0.0000

          k = 0.2000 0.3000 0.0000 (  5386 PWs)   bands (ev):

   -79.4357 -79.4357 -79.4350 -79.4350 -46.2724 -46.2724 -46.2673 -46.2673
   -32.8112 -32.8112 -32.8079 -32.8079 -32.6611 -32.6611 -32.6513 -32.6513
    -6.7112  -6.7112  -6.0349  -6.0349  -5.3287  -5.3287  -5.0127  -5.0127
     4.4411   4.4411   5.6154   5.6154   6.0562   6.0562   6.2345   6.2345
     6.9890   6.9890   7.2697   7.2697   8.6158   8.6158   8.7440   8.7440
     9.5482   9.5482   9.6686   9.6686  10.0597  10.0597  11.0025  11.0025
    11.3308  11.3308  11.7454  11.7454  12.1664  12.1664  12.4857  12.4857
    13.1163  13.1163  14.3737  14.3737  15.7426  15.7426  17.3091  17.3091
    17.7460  17.7460  18.2371  18.2371  19.8939  19.8939

     occupation numbers 
     1.0000   1.0000   1.0000   1.0000   1.0000   1.0000   1.0000   1.0000
     1.0000   1.0000   1.0000   1.0000   1.0000   1.0000   1.0000   1.0000
     1.0000   1.0000   1.0000   1.0000   1.0000   1.0000   1.0000   1.0000
     1.0000   1.0000   1.0000   1.0000   1.0000   1.0000   1.0000   1.0000
     1.0000   1.0000   1.0000   1.0000   1.0000   1.0000   1.0000   1.0000
     1.0000   1.0000   1.0000   1.0000   1.0000   1.0000   1.0000   1.0000
     1.0000   1.0000   1.0000   1.0000   1.0000   1.0000   1.0000   1.0000
     1.0000   1.0000  -0.0000  -0.0000  -0.0000  -0.0000  -0.0000  -0.0000
    -0.0000  -0.0000  -0.0000  -0.0000  -0.0000  -0.0000

          k = 0.2000 0.3000-0.7124 (  5364 PWs)   bands (ev):

   -79.4330 -79.4330 -79.4330 -79.4330 -46.2818 -46.2818 -46.2804 -46.2804
   -32.8801 -32.8801 -32.8577 -32.8577 -32.6744 -32.6744 -32.6600 -32.6600
    -5.8557  -5.8557  -5.7188  -5.7188  -5.4850  -5.4850  -5.2838  -5.2838
     5.4817   5.4817   5.8655   5.8655   6.0857   6.0857   6.1941   6.1941
     6.7689   6.7689   7.9704   7.9704   8.2811   8.2811   8.6019   8.6019
     8.9614   8.9614   9.4380   9.4380   9.6231   9.6231  10.2755  10.2755
    11.5640  11.5640  11.8586  11.8586  12.0618  12.0618  12.6869  12.6869
    13.6188  13.6188  14.4658  14.4658  14.9423  14.9423  15.8531  15.8531
    17.1652  17.1652  18.1338  18.1338  22.9564  22.9564

     occupation numbers 
     1.0000   1.0000   1.0000   1.0000   1.0000   1.0000   1.0000   1.0000
     1.0000   1.0000   1.0000   1.0000   1.0000   1.0000   1.0000   1.0000
     1.0000   1.0000   1.0000   1.0000   1.0000   1.0000   1.0000   1.0000
     1.0000   1.0000   1.0000   1.0000   1.0000   1.0000   1.0000   1.0000
     1.0000   1.0000   1.0000   1.0000   1.0000   1.0000   1.0000   1.0000
     1.0000   1.0000   1.0000   1.0000   1.0000   1.0000   1.0000   1.0000
     1.0000   1.0000   1.0000   1.0000   1.0000   1.0000   1.0000   1.0000
     1.0000   1.0000  -0.0000  -0.0000  -0.0000  -0.0000  -0.0000  -0.0000
    -0.0000  -0.0000  -0.0000  -0.0000  -0.0000  -0.0000

          k = 0.2000 0.4000 0.0000 (  5398 PWs)   bands (ev):

   -79.4355 -79.4355 -79.4352 -79.4352 -46.2712 -46.2712 -46.2685 -46.2685
   -32.8103 -32.8103 -32.8083 -32.8083 -32.6592 -32.6592 -32.6540 -32.6540
    -6.5453  -6.5453  -6.1781  -6.1781  -5.2931  -5.2931  -5.1018  -5.1018
     4.6761   4.6761   5.4054   5.4054   6.0840   6.0840   6.1901   6.1901
     7.3337   7.3337   7.5828   7.5828   8.3560   8.3560   8.7454   8.7454
     9.0765   9.0765   9.2907   9.2907  10.1687  10.1687  10.7175  10.7175
    11.6396  11.6396  11.9378  11.9378  12.1383  12.1383  12.4225  12.4225
    13.4415  13.4415  14.0979  14.0979  16.2638  16.2638  17.3405  17.3405
    17.4776  17.4776  17.8399  17.8399  20.5788  20.5788

     occupation numbers 
     1.0000   1.0000   1.0000   1.0000   1.0000   1.0000   1.0000   1.0000
     1.0000   1.0000   1.0000   1.0000   1.0000   1.0000   1.0000   1.0000
     1.0000   1.0000   1.0000   1.0000   1.0000   1.0000   1.0000   1.0000
     1.0000   1.0000   1.0000   1.0000   1.0000   1.0000   1.0000   1.0000
     1.0000   1.0000   1.0000   1.0000   1.0000   1.0000   1.0000   1.0000
     1.0000   1.0000   1.0000   1.0000   1.0000   1.0000   1.0000   1.0000
     1.0000   1.0000   1.0000   1.0000   1.0000   1.0000   1.0000   1.0000
     1.0000   1.0000  -0.0324  -0.0324  -0.0000  -0.0000  -0.0000  -0.0000
    -0.0000  -0.0000  -0.0000  -0.0000  -0.0000  -0.0000

          k = 0.2000 0.4000-0.7124 (  5346 PWs)   bands (ev):

   -79.4330 -79.4330 -79.4330 -79.4330 -46.2819 -46.2819 -46.2803 -46.2803
   -32.8809 -32.8809 -32.8570 -32.8570 -32.6749 -32.6749 -32.6596 -32.6596
    -5.8374  -5.8374  -5.7564  -5.7564  -5.4552  -5.4552  -5.2866  -5.2866
     5.4803   5.4803   5.7292   5.7292   6.0174   6.0174   6.1639   6.1639
     7.0733   7.0733   7.8004   7.8004   8.2488   8.2488   8.3527   8.3527
     9.1343   9.1343   9.5264   9.5264  10.0304  10.0304  10.6224  10.6224
    11.3014  11.3014  11.8212  11.8212  11.9265  11.9265  12.3532  12.3532
    13.8007  13.8007  14.3500  14.3500  15.0309  15.0309  15.5206  15.5206
    17.5924  17.5924  18.1355  18.1355  23.0636  23.0636

     occupation numbers 
     1.0000   1.0000   1.0000   1.0000   1.0000   1.0000   1.0000   1.0000
     1.0000   1.0000   1.0000   1.0000   1.0000   1.0000   1.0000   1.0000
     1.0000   1.0000   1.0000   1.0000   1.0000   1.0000   1.0000   1.0000
     1.0000   1.0000   1.0000   1.0000   1.0000   1.0000   1.0000   1.0000
     1.0000   1.0000   1.0000   1.0000   1.0000   1.0000   1.0000   1.0000
     1.0000   1.0000   1.0000   1.0000   1.0000   1.0000   1.0000   1.0000
     1.0000   1.0000   1.0000   1.0000   1.0000   1.0000   1.0000   1.0000
     1.0001   1.0001  -0.0000  -0.0000  -0.0000  -0.0000  -0.0000  -0.0000
    -0.0000  -0.0000  -0.0000  -0.0000  -0.0000  -0.0000

          k = 0.2000-0.5000 0.0000 (  5376 PWs)   bands (ev):

   -79.4353 -79.4353 -79.4353 -79.4353 -46.2699 -46.2699 -46.2699 -46.2699
   -32.8092 -32.8092 -32.8092 -32.8092 -32.6567 -32.6567 -32.6567 -32.6567
    -6.3596  -6.3596  -6.3596  -6.3596  -5.2054  -5.2054  -5.2054  -5.2054
     5.0244   5.0244   5.0244   5.0244   6.1323   6.1323   6.1323   6.1323
     7.7062   7.7062   7.7062   7.7062   8.3964   8.3964   8.3964   8.3964
     9.0176   9.0176   9.0176   9.0176  10.4187  10.4187  10.4187  10.4187
    11.9027  11.9027  11.9027  11.9027  12.2428  12.2428  12.2428  12.2428
    13.7788  13.7788  13.7788  13.7788  16.8593  16.8593  16.8593  16.8593
    17.5851  17.5851  17.5851  17.5851  21.2189  21.2189

     occupation numbers 
     1.0000   1.0000   1.0000   1.0000   1.0000   1.0000   1.0000   1.0000
     1.0000   1.0000   1.0000   1.0000   1.0000   1.0000   1.0000   1.0000
     1.0000   1.0000   1.0000   1.0000   1.0000   1.0000   1.0000   1.0000
     1.0000   1.0000   1.0000   1.0000   1.0000   1.0000   1.0000   1.0000
     1.0000   1.0000   1.0000   1.0000   1.0000   1.0000   1.0000   1.0000
     1.0000   1.0000   1.0000   1.0000   1.0000   1.0000   1.0000   1.0000
     1.0000   1.0000   1.0000   1.0000   1.0000   1.0000   1.0000   1.0000
     1.0000   1.0000   1.0000   1.0000  -0.0000  -0.0000  -0.0000  -0.0000
    -0.0000  -0.0000  -0.0000  -0.0000  -0.0000  -0.0000

          k = 0.2000-0.5000-0.7124 (  5352 PWs)   bands (ev):

   -79.4330 -79.4330 -79.4330 -79.4330 -46.2819 -46.2819 -46.2803 -46.2803
   -32.8812 -32.8812 -32.8567 -32.8567 -32.6751 -32.6751 -32.6594 -32.6594
    -5.8096  -5.8096  -5.7933  -5.7933  -5.4386  -5.4386  -5.2910  -5.2910
     5.5622   5.5622   5.5628   5.5628   6.0394   6.0394   6.1406   6.1406
     7.3900   7.3900   7.5105   7.5105   8.2094   8.2094   8.3158   8.3158
     9.3164   9.3164   9.3662   9.3662  10.5144  10.5144  10.5210  10.5210
    11.4410  11.4410  11.4841  11.4841  11.8969  11.8969  12.2566  12.2566
    13.9159  13.9159  14.2624  14.2624  15.2239  15.2239  15.2375  15.2375
    17.8796  17.8796  18.0124  18.0124  23.1683  23.1684

     occupation numbers 
     1.0000   1.0000   1.0000   1.0000   1.0000   1.0000   1.0000   1.0000
     1.0000   1.0000   1.0000   1.0000   1.0000   1.0000   1.0000   1.0000
     1.0000   1.0000   1.0000   1.0000   1.0000   1.0000   1.0000   1.0000
     1.0000   1.0000   1.0000   1.0000   1.0000   1.0000   1.0000   1.0000
     1.0000   1.0000   1.0000   1.0000   1.0000   1.0000   1.0000   1.0000
     1.0000   1.0000   1.0000   1.0000   1.0000   1.0000   1.0000   1.0000
     1.0000   1.0000   1.0000   1.0000   1.0000   1.0000   1.0000   1.0000
     1.0348   1.0348  -0.0000  -0.0000  -0.0000  -0.0000  -0.0000  -0.0000
    -0.0000  -0.0000  -0.0000  -0.0000  -0.0000  -0.0000

          k = 0.3000 0.3000 0.0000 (  5393 PWs)   bands (ev):

   -79.4356 -79.4356 -79.4351 -79.4351 -46.2717 -46.2717 -46.2680 -46.2680
   -32.8112 -32.8112 -32.8083 -32.8083 -32.6598 -32.6598 -32.6525 -32.6525
    -6.6320  -6.6320  -6.1340  -6.1340  -5.3011  -5.3011  -5.0119  -5.0119
     4.3594   4.3594   5.4083   5.4083   6.0301   6.0301   6.1877   6.1877
     7.2643   7.2643   7.5521   7.5521   8.7454   8.7454   8.8318   8.8318
     9.6137   9.6137   9.6691   9.6691   9.8656   9.8656  10.8212  10.8212
    11.1493  11.1493  11.6494  11.6494  12.1165  12.1165  12.4271  12.4271
    13.3921  13.3921  14.2773  14.2773  15.8160  15.8160  17.3703  17.3703
    17.5549  17.5549  18.0105  18.0105  20.4895  20.4895

     occupation numbers 
     1.0000   1.0000   1.0000   1.0000   1.0000   1.0000   1.0000   1.0000
     1.0000   1.0000   1.0000   1.0000   1.0000   1.0000   1.0000   1.0000
     1.0000   1.0000   1.0000   1.0000   1.0000   1.0000   1.0000   1.0000
     1.0000   1.0000   1.0000   1.0000   1.0000   1.0000   1.0000   1.0000
     1.0000   1.0000   1.0000   1.0000   1.0000   1.0000   1.0000   1.0000
     1.0000   1.0000   1.0000   1.0000   1.0000   1.0000   1.0000   1.0000
     1.0000   1.0000   1.0000   1.0000   1.0000   1.0000   1.0000   1.0000
     1.0000   1.0000  -0.0000  -0.0000  -0.0000  -0.0000  -0.0000  -0.0000
    -0.0000  -0.0000  -0.0000  -0.0000  -0.0000  -0.0000

          k = 0.3000 0.3000-0.7124 (  5354 PWs)   bands (ev):

   -79.4330 -79.4330 -79.4330 -79.4330 -46.2818 -46.2818 -46.2804 -46.2804
   -32.8791 -32.8791 -32.8587 -32.8587 -32.6739 -32.6739 -32.6608 -32.6608
    -5.8377  -5.8377  -5.6757  -5.6757  -5.5207  -5.5207  -5.3021  -5.3021
     5.4808   5.4808   5.8644   5.8644   6.0992   6.0992   6.3118   6.3118
     6.4645   6.4645   7.9032   7.9032   8.2478   8.2478   8.2959   8.2959
     9.2211   9.2211   9.6643   9.6643   9.7730   9.7730  10.5818  10.5818
    11.4569  11.4569  11.8721  11.8721  12.0615  12.0615  12.8025  12.8025
    13.3715  13.3715  14.3623  14.3623  15.0108  15.0108  16.0474  16.0474
    16.9906  16.9906  18.0824  18.0824  22.9899  22.9899

     occupation numbers 
     1.0000   1.0000   1.0000   1.0000   1.0000   1.0000   1.0000   1.0000
     1.0000   1.0000   1.0000   1.0000   1.0000   1.0000   1.0000   1.0000
     1.0000   1.0000   1.0000   1.0000   1.0000   1.0000   1.0000   1.0000
     1.0000   1.0000   1.0000   1.0000   1.0000   1.0000   1.0000   1.0000
     1.0000   1.0000   1.0000   1.0000   1.0000   1.0000   1.0000   1.0000
     1.0000   1.0000   1.0000   1.0000   1.0000   1.0000   1.0000   1.0000
     1.0000   1.0000   1.0000   1.0000   1.0000   1.0000   1.0000   1.0000
     1.0000   1.0000  -0.0000  -0.0000  -0.0000  -0.0000  -0.0000  -0.0000
    -0.0000  -0.0000  -0.0000  -0.0000  -0.0000  -0.0000

          k = 0.3000 0.4000 0.0000 (  5399 PWs)   bands (ev):

   -79.4355 -79.4355 -79.4352 -79.4352 -46.2708 -46.2708 -46.2689 -46.2689
   -32.8108 -32.8108 -32.8091 -32.8091 -32.6580 -32.6580 -32.6541 -32.6541
    -6.5262  -6.5262  -6.2635  -6.2635  -5.2268  -5.2268  -5.0563  -5.0563
     4.4411   4.4411   5.0241   5.0241   6.0336   6.0336   6.1232   6.1232
     7.6360   7.6360   8.0275   8.0275   8.6600   8.6600   8.9504   8.9504
     9.4381   9.4381   9.5191   9.5191   9.8171   9.8171  10.5133  10.5133
    11.3240  11.3240  11.7201  11.7201  11.9874  11.9874  12.2464  12.2464
    13.6600  13.6600  14.1187  14.1187  16.0976  16.0976  17.0491  17.0491
    17.5578  17.5578  17.8896  17.8896  21.0970  21.0970

     occupation numbers 
     1.0000   1.0000   1.0000   1.0000   1.0000   1.0000   1.0000   1.0000
     1.0000   1.0000   1.0000   1.0000   1.0000   1.0000   1.0000   1.0000
     1.0000   1.0000   1.0000   1.0000   1.0000   1.0000   1.0000   1.0000
     1.0000   1.0000   1.0000   1.0000   1.0000   1.0000   1.0000   1.0000
     1.0000   1.0000   1.0000   1.0000   1.0000   1.0000   1.0000   1.0000
     1.0000   1.0000   1.0000   1.0000   1.0000   1.0000   1.0000   1.0000
     1.0000   1.0000   1.0000   1.0000   1.0000   1.0000   1.0000   1.0000
     1.0000   1.0000  -0.0190  -0.0190  -0.0000  -0.0000  -0.0000  -0.0000
    -0.0000  -0.0000  -0.0000  -0.0000  -0.0000  -0.0000

          k = 0.3000 0.4000-0.7124 (  5364 PWs)   bands (ev):

   -79.4330 -79.4330 -79.4330 -79.4330 -46.2817 -46.2817 -46.2805 -46.2805
   -32.8782 -32.8782 -32.8596 -32.8596 -32.6734 -32.6734 -32.6615 -32.6615
    -5.8006  -5.8006  -5.6913  -5.6913  -5.5054  -5.5054  -5.3330  -5.3330
     5.5349   5.5349   5.8284   5.8284   5.9654   5.9654   6.2090   6.2090
     6.7316   6.7316   7.5576   7.5576   8.1621   8.1621   8.2922   8.2922
     9.3740   9.3740   9.6370   9.6370  10.1897  10.1897  10.7369  10.7369
    11.4950  11.4950  11.8797  11.8797  12.0353  12.0353  12.5561  12.5561
    13.5022  13.5022  14.1650  14.1650  15.2105  15.2105  15.8485  15.8485
    17.2206  17.2206  17.8992  17.8992  23.0671  23.0672

     occupation numbers 
     1.0000   1.0000   1.0000   1.0000   1.0000   1.0000   1.0000   1.0000
     1.0000   1.0000   1.0000   1.0000   1.0000   1.0000   1.0000   1.0000
     1.0000   1.0000   1.0000   1.0000   1.0000   1.0000   1.0000   1.0000
     1.0000   1.0000   1.0000   1.0000   1.0000   1.0000   1.0000   1.0000
     1.0000   1.0000   1.0000   1.0000   1.0000   1.0000   1.0000   1.0000
     1.0000   1.0000   1.0000   1.0000   1.0000   1.0000   1.0000   1.0000
     1.0000   1.0000   1.0000   1.0000   1.0000   1.0000   1.0000   1.0000
     1.0000   1.0000  -0.0020  -0.0020  -0.0000  -0.0000  -0.0000  -0.0000
    -0.0000  -0.0000  -0.0000  -0.0000  -0.0000  -0.0000

          k = 0.3000-0.5000 0.0000 (  5380 PWs)   bands (ev):

   -79.4353 -79.4353 -79.4353 -79.4353 -46.2699 -46.2699 -46.2699 -46.2699
   -32.8100 -32.8100 -32.8100 -32.8100 -32.6561 -32.6561 -32.6561 -32.6561
    -6.3999  -6.3999  -6.3999  -6.3999  -5.1354  -5.1354  -5.1354  -5.1354
     4.6744   4.6744   4.6744   4.6744   6.0673   6.0673   6.0673   6.0673
     8.0145   8.0145   8.0145   8.0145   8.8615   8.8615   8.8615   8.8615
     9.2829   9.2829   9.2829   9.2829  10.1315  10.1315  10.1315  10.1315
    11.6222  11.6222  11.6222  11.6222  12.0323  12.0323  12.0323  12.0323
    13.9072  13.9072  13.9072  13.9072  16.5375  16.5375  16.5375  16.5375
    17.7363  17.7363  17.7363  17.7363  21.6536  21.6536

     occupation numbers 
     1.0000   1.0000   1.0000   1.0000   1.0000   1.0000   1.0000   1.0000
     1.0000   1.0000   1.0000   1.0000   1.0000   1.0000   1.0000   1.0000
     1.0000   1.0000   1.0000   1.0000   1.0000   1.0000   1.0000   1.0000
     1.0000   1.0000   1.0000   1.0000   1.0000   1.0000   1.0000   1.0000
     1.0000   1.0000   1.0000   1.0000   1.0000   1.0000   1.0000   1.0000
     1.0000   1.0000   1.0000   1.0000   1.0000   1.0000   1.0000   1.0000
     1.0000   1.0000   1.0000   1.0000   1.0000   1.0000   1.0000   1.0000
     1.0310   1.0310   1.0310   1.0310  -0.0000  -0.0000  -0.0000  -0.0000
    -0.0000  -0.0000  -0.0000  -0.0000  -0.0000  -0.0000

          k = 0.3000-0.5000-0.7124 (  5368 PWs)   bands (ev):

   -79.4330 -79.4330 -79.4330 -79.4330 -46.2817 -46.2817 -46.2805 -46.2805
   -32.8778 -32.8778 -32.8600 -32.8600 -32.6732 -32.6732 -32.6618 -32.6618
    -5.7627  -5.7627  -5.7300  -5.7300  -5.4819  -5.4819  -5.3536  -5.3536
     5.6302   5.6302   5.6959   5.6959   5.9528   5.9528   6.1578   6.1578
     7.1065   7.1065   7.1537   7.1537   8.1585   8.1585   8.2910   8.2910
     9.5115   9.5115   9.5291   9.5291  10.5503  10.5503  10.5598  10.5598
    11.7166  11.7166  11.8240  11.8240  11.9702  11.9702  12.3697  12.3697
    13.6800  13.6800  14.0005  14.0005  15.5086  15.5086  15.5106  15.5106
    17.5434  17.5434  17.6378  17.6378  23.1556  23.1559

     occupation numbers 
     1.0000   1.0000   1.0000   1.0000   1.0000   1.0000   1.0000   1.0000
     1.0000   1.0000   1.0000   1.0000   1.0000   1.0000   1.0000   1.0000
     1.0000   1.0000   1.0000   1.0000   1.0000   1.0000   1.0000   1.0000
     1.0000   1.0000   1.0000   1.0000   1.0000   1.0000   1.0000   1.0000
     1.0000   1.0000   1.0000   1.0000   1.0000   1.0000   1.0000   1.0000
     1.0000   1.0000   1.0000   1.0000   1.0000   1.0000   1.0000   1.0000
     1.0000   1.0000   1.0000   1.0000   1.0000   1.0000   1.0000   1.0000
     1.0000   1.0000   0.5411   0.5411  -0.0000  -0.0000  -0.0000  -0.0000
    -0.0000  -0.0000  -0.0000  -0.0000  -0.0000  -0.0000

          k = 0.4000 0.4000 0.0000 (  5386 PWs)   bands (ev):

   -79.4354 -79.4354 -79.4353 -79.4353 -46.2704 -46.2704 -46.2694 -46.2694
   -32.8109 -32.8109 -32.8099 -32.8099 -32.6567 -32.6567 -32.6546 -32.6546
    -6.4885  -6.4885  -6.3522  -6.3522  -5.1474  -5.1474  -5.0477  -5.0477
     4.3587   4.3587   4.6737   4.6737   6.0100   6.0100   6.0609   6.0609
     7.9883   7.9883   8.4726   8.4726   8.7526   8.7526   9.1702   9.1702
     9.4627   9.4627   9.6056   9.6056   9.7606   9.7606  10.4487  10.4487
    11.1260  11.1260  11.5308  11.5308  11.7989  11.7989  12.0223  12.0223
    13.8519  13.8519  14.0871  14.0871  16.0999  16.0999  16.6333  16.6333
    17.7257  17.7257  17.9163  17.9163  21.6222  21.6222

     occupation numbers 
     1.0000   1.0000   1.0000   1.0000   1.0000   1.0000   1.0000   1.0000
     1.0000   1.0000   1.0000   1.0000   1.0000   1.0000   1.0000   1.0000
     1.0000   1.0000   1.0000   1.0000   1.0000   1.0000   1.0000   1.0000
     1.0000   1.0000   1.0000   1.0000   1.0000   1.0000   1.0000   1.0000
     1.0000   1.0000   1.0000   1.0000   1.0000   1.0000   1.0000   1.0000
     1.0000   1.0000   1.0000   1.0000   1.0000   1.0000   1.0000   1.0000
     1.0000   1.0000   1.0000   1.0000   1.0000   1.0000   1.0000   1.0000
     1.0035   1.0035  -0.0355  -0.0355  -0.0000  -0.0000  -0.0000  -0.0000
    -0.0000  -0.0000  -0.0000  -0.0000  -0.0000  -0.0000

          k = 0.4000 0.4000-0.7124 (  5370 PWs)   bands (ev):

   -79.4330 -79.4330 -79.4330 -79.4330 -46.2815 -46.2815 -46.2807 -46.2807
   -32.8752 -32.8752 -32.8626 -32.8626 -32.6716 -32.6716 -32.6635 -32.6635
    -5.7487  -5.7487  -5.6460  -5.6460  -5.5401  -5.5401  -5.3913  -5.3913
     5.6117   5.6117   5.8106   5.8106   5.9701   5.9701   6.3213   6.3213
     6.5513   6.5513   7.1852   7.1852   8.1707   8.1707   8.2748   8.2748
     9.5165   9.5165   9.6578   9.6578  10.4233  10.4233  10.7316  10.7316
    11.7548  11.7548  11.8987  11.8987  12.1478  12.1478  12.6925  12.6925
    13.3239  13.3239  13.9007  13.9007  15.5006  15.5006  16.0344  16.0344
    17.0083  17.0083  17.5665  17.5665  23.0553  23.0554

     occupation numbers 
     1.0000   1.0000   1.0000   1.0000   1.0000   1.0000   1.0000   1.0000
     1.0000   1.0000   1.0000   1.0000   1.0000   1.0000   1.0000   1.0000
     1.0000   1.0000   1.0000   1.0000   1.0000   1.0000   1.0000   1.0000
     1.0000   1.0000   1.0000   1.0000   1.0000   1.0000   1.0000   1.0000
     1.0000   1.0000   1.0000   1.0000   1.0000   1.0000   1.0000   1.0000
     1.0000   1.0000   1.0000   1.0000   1.0000   1.0000   1.0000   1.0000
     1.0000   1.0000   1.0000   1.0000   1.0000   1.0000   1.0000   1.0000
     1.0000   1.0000   1.0269   1.0269  -0.0000  -0.0000  -0.0000  -0.0000
    -0.0000  -0.0000  -0.0000  -0.0000  -0.0000  -0.0000

          k = 0.4000-0.5000 0.0000 (  5400 PWs)   bands (ev):

   -79.4353 -79.4353 -79.4353 -79.4353 -46.2699 -46.2699 -46.2699 -46.2699
   -32.8106 -32.8106 -32.8106 -32.8106 -32.6555 -32.6555 -32.6555 -32.6555
    -6.4298  -6.4298  -6.4298  -6.4298  -5.0811  -5.0811  -5.0811  -5.0811
     4.4399   4.4399   4.4399   4.4399   6.0198   6.0198   6.0198   6.0198
     8.3612   8.3612   8.3612   8.3612   9.0012   9.0012   9.0012   9.0012
     9.5072   9.5072   9.5072   9.5072  10.1408  10.1408  10.1408  10.1408
    11.2919  11.2919  11.2919  11.2919  11.8201  11.8201  11.8201  11.8201
    13.9960  13.9960  13.9960  13.9960  16.2915  16.2915  16.2915  16.2915
    17.8593  17.8593  17.8593  17.8593  22.0989  22.0989

     occupation numbers 
     1.0000   1.0000   1.0000   1.0000   1.0000   1.0000   1.0000   1.0000
     1.0000   1.0000   1.0000   1.0000   1.0000   1.0000   1.0000   1.0000
     1.0000   1.0000   1.0000   1.0000   1.0000   1.0000   1.0000   1.0000
     1.0000   1.0000   1.0000   1.0000   1.0000   1.0000   1.0000   1.0000
     1.0000   1.0000   1.0000   1.0000   1.0000   1.0000   1.0000   1.0000
     1.0000   1.0000   1.0000   1.0000   1.0000   1.0000   1.0000   1.0000
     1.0000   1.0000   1.0000   1.0000   1.0000   1.0000   1.0000   1.0000
     0.5969   0.5969   0.5969   0.5969  -0.0000  -0.0000  -0.0000  -0.0000
    -0.0000  -0.0000  -0.0000  -0.0000  -0.0000  -0.0000

          k = 0.4000-0.5000-0.7124 (  5368 PWs)   bands (ev):

   -79.4330 -79.4330 -79.4330 -79.4330 -46.2814 -46.2814 -46.2808 -46.2808
   -32.8735 -32.8735 -32.8642 -32.8642 -32.6706 -32.6706 -32.6646 -32.6646
    -5.7060  -5.7060  -5.6630  -5.6630  -5.5244  -5.5244  -5.4310  -5.4310
     5.6759   5.6759   5.7461   5.7461   6.0238   6.0238   6.2422   6.2422
     6.7550   6.7550   6.8678   6.8678   8.1865   8.1865   8.2646   8.2646
     9.6080   9.6080   9.6108   9.6108  10.6192  10.6192  10.6264  10.6264
    11.8648  11.8648  11.9006  11.9006  12.3014  12.3014  12.5656  12.5656
    13.4371  13.4371  13.6820  13.6820  15.8378  15.8378  15.8389  15.8389
    17.1788  17.1788  17.2301  17.2301  23.0938  23.1653

     occupation numbers 
     1.0000   1.0000   1.0000   1.0000   1.0000   1.0000   1.0000   1.0000
     1.0000   1.0000   1.0000   1.0000   1.0000   1.0000   1.0000   1.0000
     1.0000   1.0000   1.0000   1.0000   1.0000   1.0000   1.0000   1.0000
     1.0000   1.0000   1.0000   1.0000   1.0000   1.0000   1.0000   1.0000
     1.0000   1.0000   1.0000   1.0000   1.0000   1.0000   1.0000   1.0000
     1.0000   1.0000   1.0000   1.0000   1.0000   1.0000   1.0000   1.0000
     1.0000   1.0000   1.0000   1.0000   1.0000   1.0000   1.0000   1.0000
     1.0000   1.0000   1.0000   1.0000  -0.0000  -0.0000  -0.0000  -0.0000
    -0.0000  -0.0000  -0.0000  -0.0000  -0.0000  -0.0000

          k =-0.5000-0.5000 0.0000 (  5412 PWs)   bands (ev):

   -79.4353 -79.4353 -79.4353 -79.4353 -46.2699 -46.2699 -46.2699 -46.2699
   -32.8108 -32.8108 -32.8108 -32.8108 -32.6553 -32.6553 -32.6553 -32.6553
    -6.4407  -6.4407  -6.4407  -6.4407  -5.0608  -5.0608  -5.0608  -5.0608
     4.3580   4.3580   4.3580   4.3580   6.0025   6.0025   6.0025   6.0025
     8.7149   8.7149   8.7149   8.7149   8.7449   8.7449   8.7449   8.7449
     9.5946   9.5946   9.5946   9.5946  10.3213  10.3213  10.3213  10.3213
    11.0930  11.0930  11.0930  11.0930  11.7173  11.7173  11.7173  11.7173
    14.0258  14.0258  14.0258  14.0258  16.2017  16.2017  16.2017  16.2017
    17.9058  17.9058  17.9058  17.9058  22.7661  22.7664

     occupation numbers 
     1.0000   1.0000   1.0000   1.0000   1.0000   1.0000   1.0000   1.0000
     1.0000   1.0000   1.0000   1.0000   1.0000   1.0000   1.0000   1.0000
     1.0000   1.0000   1.0000   1.0000   1.0000   1.0000   1.0000   1.0000
     1.0000   1.0000   1.0000   1.0000   1.0000   1.0000   1.0000   1.0000
     1.0000   1.0000   1.0000   1.0000   1.0000   1.0000   1.0000   1.0000
     1.0000   1.0000   1.0000   1.0000   1.0000   1.0000   1.0000   1.0000
     1.0000   1.0000   1.0000   1.0000   1.0000   1.0000   1.0000   1.0000
     0.2419   0.2419   0.2419   0.2419  -0.0000  -0.0000  -0.0000  -0.0000
    -0.0000  -0.0000  -0.0000  -0.0000  -0.0000  -0.0000

          k =-0.5000-0.5000-0.7124 (  5384 PWs)   bands (ev):

   -79.4330 -79.4330 -79.4330 -79.4330 -46.2811 -46.2811 -46.2811 -46.2811
   -32.8689 -32.8689 -32.8689 -32.8689 -32.6677 -32.6677 -32.6677 -32.6677
    -5.6547  -5.6547  -5.6547  -5.6547  -5.5068  -5.5068  -5.5068  -5.5068
     5.7094   5.7094   5.7094   5.7094   6.2262   6.2262   6.2262   6.2262
     6.6494   6.6494   6.6494   6.6494   8.2289   8.2289   8.2289   8.2289
     9.6347   9.6347   9.6347   9.6347  10.6556  10.6556  10.6556  10.6556
    11.9053  11.9053  11.9053  11.9053  12.5895  12.5895  12.5895  12.5895
    13.4126  13.4126  13.4126  13.4126  16.0292  16.0292  16.0292  16.0292
    16.9922  16.9922  16.9922  16.9922  23.0698  23.0698

     occupation numbers 
     1.0000   1.0000   1.0000   1.0000   1.0000   1.0000   1.0000   1.0000
     1.0000   1.0000   1.0000   1.0000   1.0000   1.0000   1.0000   1.0000
     1.0000   1.0000   1.0000   1.0000   1.0000   1.0000   1.0000   1.0000
     1.0000   1.0000   1.0000   1.0000   1.0000   1.0000   1.0000   1.0000
     1.0000   1.0000   1.0000   1.0000   1.0000   1.0000   1.0000   1.0000
     1.0000   1.0000   1.0000   1.0000   1.0000   1.0000   1.0000   1.0000
     1.0000   1.0000   1.0000   1.0000   1.0000   1.0000   1.0000   1.0000
     1.0000   1.0000   1.0000   1.0000  -0.0000  -0.0000  -0.0000  -0.0000
    -0.0000  -0.0000  -0.0000  -0.0000  -0.0000  -0.0000

     the Fermi energy is    14.0038 ev

!    total energy              =    -553.10319510 Ry
     estimated scf accuracy    <          9.2E-10 Ry
     smearing contrib. (-TS)   =      -0.00002068 Ry
     internal energy E=F+TS    =    -553.10317442 Ry

     The total energy is F=E-TS. E is the sum of the following terms:
     one-electron contribution =    -190.81430521 Ry
     hartree contribution      =     122.58881259 Ry
     xc contribution           =     -69.89167129 Ry
     ewald contribution        =    -414.98601052 Ry

     convergence has been achieved in   9 iterations

     Forces acting on atoms (cartesian axes, Ry/au):

     atom    1 type  2   force =     0.00000000    0.00000000    0.00000000
     atom    2 type  2   force =     0.00000000    0.00000000    0.00000000
     atom    3 type  1   force =    -0.01459245    0.01459245    0.00000000
     atom    4 type  1   force =     0.01459245    0.01459245   -0.00000000
     atom    5 type  1   force =    -0.01459245   -0.01459245   -0.00000000
     atom    6 type  1   force =     0.01459245   -0.01459245    0.00000000
     The non-local contrib.  to forces
     atom    1 type  2   force =     0.00000000    0.00000000    0.00000000
     atom    2 type  2   force =     0.00000000    0.00000000   -0.00000000
     atom    3 type  1   force =    -0.13532349    0.13532349    0.00000000
     atom    4 type  1   force =     0.13532349    0.13532349    0.00000000
     atom    5 type  1   force =    -0.13532349   -0.13532349    0.00000000
     atom    6 type  1   force =     0.13532349   -0.13532349    0.00000000
     The ionic contribution  to forces
     atom    1 type  2   force =    -0.00000000   -0.00000000    0.00000000
     atom    2 type  2   force =     0.00000000    0.00000000   -0.00000000
     atom    3 type  1   force =     1.42937233   -1.42937233    0.00000000
     atom    4 type  1   force =    -1.42937233   -1.42937233   -0.00000000
     atom    5 type  1   force =     1.42937233    1.42937233    0.00000000
     atom    6 type  1   force =    -1.42937233    1.42937233    0.00000000
     The local contribution  to forces
     atom    1 type  2   force =     0.00000000    0.00000000   -0.00000000
     atom    2 type  2   force =     0.00000000    0.00000000    0.00000000
     atom    3 type  1   force =    -1.30864039    1.30864039    0.00000000
     atom    4 type  1   force =     1.30864039    1.30864039   -0.00000000
     atom    5 type  1   force =    -1.30864039   -1.30864039   -0.00000000
     atom    6 type  1   force =     1.30864039   -1.30864039    0.00000000
     The core correction contribution to forces
     atom    1 type  2   force =     0.00000000    0.00000000    0.00000000
     atom    2 type  2   force =     0.00000000    0.00000000    0.00000000
     atom    3 type  1   force =     0.00000000    0.00000000    0.00000000
     atom    4 type  1   force =     0.00000000    0.00000000    0.00000000
     atom    5 type  1   force =     0.00000000    0.00000000    0.00000000
     atom    6 type  1   force =     0.00000000    0.00000000    0.00000000
     The Hubbard contrib.    to forces
     atom    1 type  2   force =     0.00000000    0.00000000    0.00000000
     atom    2 type  2   force =     0.00000000    0.00000000    0.00000000
     atom    3 type  1   force =     0.00000000    0.00000000    0.00000000
     atom    4 type  1   force =     0.00000000    0.00000000    0.00000000
     atom    5 type  1   force =     0.00000000    0.00000000    0.00000000
     atom    6 type  1   force =     0.00000000    0.00000000    0.00000000
     The SCF correction term to forces
     atom    1 type  2   force =     0.00000000   -0.00000000    0.00000000
     atom    2 type  2   force =     0.00000000    0.00000000    0.00000000
     atom    3 type  1   force =    -0.00000090    0.00000090   -0.00000000
     atom    4 type  1   force =     0.00000090    0.00000090    0.00000000
     atom    5 type  1   force =    -0.00000090   -0.00000090    0.00000000
     atom    6 type  1   force =     0.00000090   -0.00000090   -0.00000000

     Total force =     0.041274     Total SCF correction =     0.000003


     Computing stress (Cartesian axis) and pressure

          total   stress  (Ry/bohr**3)                   (kbar)     P=      -49.31
  -0.00022313   0.00000000   0.00000000          -32.82        0.00        0.00
   0.00000000  -0.00022313   0.00000000            0.00      -32.82        0.00
   0.00000000   0.00000000  -0.00055929            0.00        0.00      -82.27

     kinetic stress (kbar)  48394.21      0.00      0.00
                                0.00  48394.21      0.00
                                0.00      0.00  47576.42

     local   stress (kbar) -12634.92     -0.00      0.00
                               -0.00 -12634.92     -0.00
                                0.00     -0.00 -44436.70

     nonloc. stress (kbar)  14537.79      0.00      0.00
                                0.00  14537.79      0.00
                                0.00      0.00  14677.23

     hartree stress (kbar)   9592.26     -0.00     -0.00
                               -0.00   9592.26     -0.00
                               -0.00     -0.00  21368.61

     exc-cor stress (kbar)  -7285.95     -0.00     -0.00
                               -0.00  -7285.95      0.00
                               -0.00      0.00  -7260.39

     corecor stress (kbar)      0.00      0.00      0.00
                                0.00      0.00      0.00
                                0.00      0.00      0.00

     ewald   stress (kbar) -52636.21     -0.00     -0.00
                               -0.00 -52636.21     -0.00
                               -0.00     -0.00 -32007.45

     hubbard stress (kbar)      0.00      0.00      0.00
                                0.00      0.00      0.00
                                0.00      0.00      0.00

     DFT-D   stress (kbar)      0.00      0.00      0.00
                                0.00      0.00      0.00
                                0.00      0.00      0.00

     XDM     stress (kbar)      0.00      0.00      0.00
                                0.00      0.00      0.00
                                0.00      0.00      0.00

     dft-nl  stress (kbar)      0.00      0.00      0.00
                                0.00      0.00      0.00
                                0.00      0.00      0.00

     TS-vdW  stress (kbar)      0.00      0.00      0.00
                                0.00      0.00      0.00
                                0.00      0.00      0.00


                                0.00      0.00      0.00
                                0.00      0.00      0.00


                                0.00      0.00      0.00


     Writing all to output data dir tmp/espresso.save/
 
     init_run     :      4.26s CPU      2.22s WALL (       1 calls)
     electrons    :    131.96s CPU     67.55s WALL (       1 calls)
     forces       :      8.48s CPU      4.34s WALL (       1 calls)
     stress       :     10.77s CPU      5.45s WALL (       1 calls)

     Called by init_run:
     wfcinit      :      4.19s CPU      2.16s WALL (       1 calls)
     wfcinit:atom :      0.01s CPU      0.01s WALL (      42 calls)
     wfcinit:wfcr :      4.08s CPU      2.09s WALL (      42 calls)
     potinit      :      0.02s CPU      0.01s WALL (       1 calls)
     hinit0       :      0.03s CPU      0.03s WALL (       1 calls)

     Called by electrons:
     c_bands      :    121.15s CPU     61.98s WALL (       9 calls)
     sum_band     :     10.69s CPU      5.49s WALL (       9 calls)
     v_of_rho     :      0.05s CPU      0.02s WALL (      10 calls)
     v_h          :      0.00s CPU      0.00s WALL (      10 calls)
     v_xc         :      0.04s CPU      0.02s WALL (      10 calls)
     mix_rho      :      0.04s CPU      0.02s WALL (       9 calls)

     Called by c_bands:
     init_us_2    :      0.35s CPU      0.18s WALL (     882 calls)
     init_us_2:cp :      0.34s CPU      0.18s WALL (     882 calls)
     cegterg      :    111.88s CPU     57.26s WALL (     378 calls)

     Called by sum_band:
     sum_band:wei :      0.07s CPU      0.04s WALL (       9 calls)
     sum_band:loo :     10.59s CPU      5.44s WALL (       9 calls)
     sum_band:buf :      0.06s CPU      0.03s WALL (     378 calls)
     sum_band:ini :      0.11s CPU      0.06s WALL (     378 calls)

     Called by *egterg:
     cdiaghg      :     18.36s CPU      9.35s WALL (    1508 calls)
     cegterg:over :      6.79s CPU      3.46s WALL (    1130 calls)
     cegterg:upda :      5.47s CPU      2.77s WALL (    1130 calls)
     cegterg:last :      9.44s CPU      4.79s WALL (     756 calls)
     cdiaghg:chol :      0.85s CPU      0.43s WALL (    1508 calls)
     cdiaghg:inve :      0.13s CPU      0.07s WALL (    1508 calls)
     cdiaghg:para :      1.88s CPU      0.96s WALL (    3016 calls)
     h_psi        :     73.04s CPU     37.54s WALL (    1550 calls)
     g_psi        :      0.11s CPU      0.06s WALL (    1130 calls)

     Called by h_psi:
     h_psi:calbec :      8.84s CPU      4.63s WALL (    1550 calls)
     vloc_psi     :     51.21s CPU     26.31s WALL (    1550 calls)
     add_vuspsi   :     12.82s CPU      6.52s WALL (    1550 calls)

     General routines
     calbec       :     11.30s CPU      5.91s WALL (    1760 calls)
     fft          :      0.06s CPU      0.03s WALL (     137 calls)
     ffts         :      0.01s CPU      0.01s WALL (      36 calls)
     fftw         :     57.86s CPU     29.73s WALL (  327728 calls)
 
     Parallel routines
 
     PWSCF        :   2m40.18s CPU   1m23.11s WALL

 
   This run was terminated on:   9:47:26  10Apr2022            

=------------------------------------------------------------------------------=
   JOB DONE.
=------------------------------------------------------------------------------=
