
     Program PWSCF v.7.0 starts on 10Apr2022 at 12: 7: 6 

     This program is part of the open-source Quantum ESPRESSO suite
     for quantum simulation of materials; please cite
         "P. Giannozzi et al., J. Phys.:Condens. Matter 21 395502 (2009);
         "P. Giannozzi et al., J. Phys.:Condens. Matter 29 465901 (2017);
         "P. Giannozzi et al., J. Chem. Phys. 152 154105 (2020);
          URL http://www.quantum-espresso.org", 
     in publications or presentations arising from this work. More details at
     http://www.quantum-espresso.org/quote

     Parallel version (MPI & OpenMP), running on      64 processor cores
     Number of MPI processes:                32
     Threads/MPI process:                     2

     MPI processes distributed on     1 nodes
     R & G space division:  proc/nbgrp/npool/nimage =      32
     230170 MiB available memory on the printing compute node when the environment starts
 
     Reading input from kpoints_9911.pwi
Warning: card &CELL ignored
Warning: card / ignored

     Current dimensions of program PWSCF are:
     Max number of different atomic species (ntypx) = 10
     Max number of k-points (npk) =  40000
     Max angular momentum in pseudopotentials (lmaxx) =  4

     Subspace diagonalization in iterative solution of the eigenvalue problem:
     one sub-group per band group will be used
     scalapack distributed-memory algorithm (size of sub-group:  5*  5 procs)

 
     Parallelization info
     --------------------
     sticks:   dense  smooth     PW     G-vecs:    dense   smooth      PW
     Min          58      58     17                 1342     1342     207
     Max          59      59     18                 1345     1345     210
     Sum        1885    1885    545                42999    42999    6651
 
     Using Slab Decomposition
 

     Title: 
     IrO2 Unit Cell                                                             


     bravais-lattice index     =            6
     lattice parameter (alat)  =       8.5888  a.u.
     unit-cell volume          =     444.6868 (a.u.)^3
     number of atoms/cell      =            6
     number of atomic types    =            2
     number of electrons       =        58.00
     number of Kohn-Sham states=           70
     kinetic-energy cutoff     =      80.0000  Ry
     charge density cutoff     =     320.0000  Ry
     scf convergence threshold =      1.0E-09
     mixing beta               =       0.7000
     number of iterations used =            8  plain     mixing
     Exchange-correlation= PBE
                           (   1   4   3   4   0   0   0)
     Non magnetic calculation with spin-orbit


     celldm(1)=   8.588800  celldm(2)=   0.000000  celldm(3)=   0.701870
     celldm(4)=   0.000000  celldm(5)=   0.000000  celldm(6)=   0.000000

     crystal axes: (cart. coord. in units of alat)
               a(1) = (   1.000000   0.000000   0.000000 )  
               a(2) = (   0.000000   1.000000   0.000000 )  
               a(3) = (   0.000000   0.000000   0.701870 )  

     reciprocal axes: (cart. coord. in units 2 pi/alat)
               b(1) = (  1.000000  0.000000  0.000000 )  
               b(2) = (  0.000000  1.000000  0.000000 )  
               b(3) = (  0.000000  0.000000  1.424765 )  


     PseudoPot. # 1 for O  read from file:
     ../../XX_PSEUDO/O_ONCV_PBE_fr.upf
     MD5 check sum: 59c925217d3b58c6d762355590b68b09
     Pseudo is Norm-conserving, Zval =  6.0
     Generated using ONCVPSP code by D. R. Hamann
     Using radial grid of  936 points,  6 beta functions with: 
                l(1) =   0
                l(2) =   0
                l(3) =   1
                l(4) =   1
                l(5) =   1
                l(6) =   1

     PseudoPot. # 2 for Ir read from file:
     ../../XX_PSEUDO/Ir_ONCV_PBE_fr.upf
     MD5 check sum: 924e909c4146afa09f62ee3401806954
     Pseudo is Norm-conserving, Zval = 17.0
     Generated using ONCVPSP code by D. R. Hamann
     Using radial grid of 1310 points, 14 beta functions with: 
                l(1) =   0
                l(2) =   0
                l(3) =   1
                l(4) =   1
                l(5) =   1
                l(6) =   1
                l(7) =   2
                l(8) =   2
                l(9) =   2
               l(10) =   2
               l(11) =   3
               l(12) =   3
               l(13) =   3
               l(14) =   3

     atomic species   valence    mass     pseudopotential
        O              6.00    15.99900     O ( 1.00)
        Ir            17.00   192.21700     Ir( 1.00)

     16 Sym. Ops., with inversion, found ( 8 have fractional translation)


                                    s                        frac. trans.

      isym =  1     identity                                     

 cryst.   s( 1) = (     1          0          0      )
                  (     0          1          0      )
                  (     0          0          1      )

 cart.    s( 1) = (  1.0000000  0.0000000  0.0000000 )
                  (  0.0000000  1.0000000  0.0000000 )
                  (  0.0000000  0.0000000  1.0000000 )


      isym =  2     180 deg rotation - cart. axis [0,0,1]        

 cryst.   s( 2) = (    -1          0          0      )
                  (     0         -1          0      )
                  (     0          0          1      )

 cart.    s( 2) = ( -1.0000000  0.0000000  0.0000000 )
                  (  0.0000000 -1.0000000  0.0000000 )
                  (  0.0000000  0.0000000  1.0000000 )


      isym =  3     180 deg rotation - cart. axis [0,1,0]        

 cryst.   s( 3) = (    -1          0          0      )    f =(  0.5000000 )
                  (     0          1          0      )       ( -0.5000000 )
                  (     0          0         -1      )       (  0.5000000 )

 cart.    s( 3) = ( -1.0000000  0.0000000  0.0000000 )    f =(  0.5000000 )
                  (  0.0000000  1.0000000  0.0000000 )       ( -0.5000000 )
                  (  0.0000000  0.0000000 -1.0000000 )       (  0.3509351 )


      isym =  4     180 deg rotation - cart. axis [1,0,0]        

 cryst.   s( 4) = (     1          0          0      )    f =( -0.5000000 )
                  (     0         -1          0      )       (  0.5000000 )
                  (     0          0         -1      )       (  0.5000000 )

 cart.    s( 4) = (  1.0000000  0.0000000  0.0000000 )    f =( -0.5000000 )
                  (  0.0000000 -1.0000000  0.0000000 )       (  0.5000000 )
                  (  0.0000000  0.0000000 -1.0000000 )       (  0.3509351 )


      isym =  5     180 deg rotation - cart. axis [1,1,0]        

 cryst.   s( 5) = (     0          1          0      )
                  (     1          0          0      )
                  (     0          0         -1      )

 cart.    s( 5) = (  0.0000000  1.0000000  0.0000000 )
                  (  1.0000000  0.0000000  0.0000000 )
                  (  0.0000000  0.0000000 -1.0000000 )


      isym =  6     180 deg rotation - cart. axis [1,-1,0]       

 cryst.   s( 6) = (     0         -1          0      )
                  (    -1          0          0      )
                  (     0          0         -1      )

 cart.    s( 6) = (  0.0000000 -1.0000000  0.0000000 )
                  ( -1.0000000  0.0000000  0.0000000 )
                  (  0.0000000  0.0000000 -1.0000000 )


      isym =  7      90 deg rotation - cart. axis [0,0,-1]       

 cryst.   s( 7) = (     0         -1          0      )    f =( -0.5000000 )
                  (     1          0          0      )       (  0.5000000 )
                  (     0          0          1      )       ( -0.5000000 )

 cart.    s( 7) = (  0.0000000  1.0000000  0.0000000 )    f =( -0.5000000 )
                  ( -1.0000000  0.0000000  0.0000000 )       (  0.5000000 )
                  (  0.0000000  0.0000000  1.0000000 )       ( -0.3509351 )


      isym =  8      90 deg rotation - cart. axis [0,0,1]        

 cryst.   s( 8) = (     0          1          0      )    f =(  0.5000000 )
                  (    -1          0          0      )       ( -0.5000000 )
                  (     0          0          1      )       ( -0.5000000 )

 cart.    s( 8) = (  0.0000000 -1.0000000  0.0000000 )    f =(  0.5000000 )
                  (  1.0000000  0.0000000  0.0000000 )       ( -0.5000000 )
                  (  0.0000000  0.0000000  1.0000000 )       ( -0.3509351 )


      isym =  9     inversion                                    

 cryst.   s( 9) = (    -1          0          0      )
                  (     0         -1          0      )
                  (     0          0         -1      )

 cart.    s( 9) = ( -1.0000000  0.0000000  0.0000000 )
                  (  0.0000000 -1.0000000  0.0000000 )
                  (  0.0000000  0.0000000 -1.0000000 )


      isym = 10     inv. 180 deg rotation - cart. axis [0,0,1]   

 cryst.   s(10) = (     1          0          0      )
                  (     0          1          0      )
                  (     0          0         -1      )

 cart.    s(10) = (  1.0000000  0.0000000  0.0000000 )
                  (  0.0000000  1.0000000  0.0000000 )
                  (  0.0000000  0.0000000 -1.0000000 )


      isym = 11     inv. 180 deg rotation - cart. axis [0,1,0]   

 cryst.   s(11) = (     1          0          0      )    f =( -0.5000000 )
                  (     0         -1          0      )       (  0.5000000 )
                  (     0          0          1      )       ( -0.5000000 )

 cart.    s(11) = (  1.0000000  0.0000000  0.0000000 )    f =( -0.5000000 )
                  (  0.0000000 -1.0000000  0.0000000 )       (  0.5000000 )
                  (  0.0000000  0.0000000  1.0000000 )       ( -0.3509351 )


      isym = 12     inv. 180 deg rotation - cart. axis [1,0,0]   

 cryst.   s(12) = (    -1          0          0      )    f =(  0.5000000 )
                  (     0          1          0      )       ( -0.5000000 )
                  (     0          0          1      )       ( -0.5000000 )

 cart.    s(12) = ( -1.0000000  0.0000000  0.0000000 )    f =(  0.5000000 )
                  (  0.0000000  1.0000000  0.0000000 )       ( -0.5000000 )
                  (  0.0000000  0.0000000  1.0000000 )       ( -0.3509351 )


      isym = 13     inv. 180 deg rotation - cart. axis [1,1,0]   

 cryst.   s(13) = (     0         -1          0      )
                  (    -1          0          0      )
                  (     0          0          1      )

 cart.    s(13) = (  0.0000000 -1.0000000  0.0000000 )
                  ( -1.0000000  0.0000000  0.0000000 )
                  (  0.0000000  0.0000000  1.0000000 )


      isym = 14     inv. 180 deg rotation - cart. axis [1,-1,0]  

 cryst.   s(14) = (     0          1          0      )
                  (     1          0          0      )
                  (     0          0          1      )

 cart.    s(14) = (  0.0000000  1.0000000  0.0000000 )
                  (  1.0000000  0.0000000  0.0000000 )
                  (  0.0000000  0.0000000  1.0000000 )


      isym = 15     inv.  90 deg rotation - cart. axis [0,0,-1]  

 cryst.   s(15) = (     0          1          0      )    f =(  0.5000000 )
                  (    -1          0          0      )       ( -0.5000000 )
                  (     0          0         -1      )       (  0.5000000 )

 cart.    s(15) = (  0.0000000 -1.0000000  0.0000000 )    f =(  0.5000000 )
                  (  1.0000000  0.0000000  0.0000000 )       ( -0.5000000 )
                  (  0.0000000  0.0000000 -1.0000000 )       (  0.3509351 )


      isym = 16     inv.  90 deg rotation - cart. axis [0,0,1]   

 cryst.   s(16) = (     0         -1          0      )    f =( -0.5000000 )
                  (     1          0          0      )       (  0.5000000 )
                  (     0          0         -1      )       (  0.5000000 )

 cart.    s(16) = (  0.0000000  1.0000000  0.0000000 )    f =( -0.5000000 )
                  ( -1.0000000  0.0000000  0.0000000 )       (  0.5000000 )
                  (  0.0000000  0.0000000 -1.0000000 )       (  0.3509351 )


     double point group D_4h(4/mmm)
     there are 14 classes and  4 irreducible representations
     the character table:

       E     -E    2C4   -2C4   C2    2C2' 2C2'' i     -i    2S4   -2S4   s_h 
                               -C2   -2C2' -2C2'                         -s_h 
G_6+   2.00 -2.00  1.41 -1.41  0.00  0.00  0.00  2.00 -2.00  1.41 -1.41  0.00
G_7+   2.00 -2.00 -1.41  1.41  0.00  0.00  0.00  2.00 -2.00 -1.41  1.41  0.00
G_6-   2.00 -2.00  1.41 -1.41  0.00  0.00  0.00 -2.00  2.00 -1.41  1.41  0.00
G_7-   2.00 -2.00 -1.41  1.41  0.00  0.00  0.00 -2.00  2.00  1.41 -1.41  0.00

        2s_v  2s_d
       -2s_v -2s_d
G_6+   0.00  0.00
G_7+   0.00  0.00
G_6-   0.00  0.00
G_7-   0.00  0.00

     the symmetry operations in each class and the name of the first element:

     E             1
          identity                                               
     -E           -1
          identity E                                             
     2C4           7    8
           90 deg rotation - cart. axis [0,0,-1]                 
     -2C4         -7   -8
           90 deg rotation - cart. axis [0,0,-1] E               
      C2  -C2      2   -2
          180 deg rotation - cart. axis [0,0,1]                  
      2C2'-2C2'    3   -3    4   -4
          180 deg rotation - cart. axis [0,1,0]                  
     2C2''-2C2'    5   -5   -6    6
          180 deg rotation - cart. axis [1,1,0]                  
     i             9
          inversion                                              
     -i           -9
          inversion E                                            
     2S4          15   16
          inv.  90 deg rotation - cart. axis [0,0,-1]            
     -2S4        -15  -16
          inv.  90 deg rotation - cart. axis [0,0,-1] E          
      s_h -s_h    10  -10
          inv. 180 deg rotation - cart. axis [0,0,1]             
      2s_v-2s_v   11  -11   12  -12
          inv. 180 deg rotation - cart. axis [0,1,0]             
      2s_d-2s_d   13  -13  -14   14
          inv. 180 deg rotation - cart. axis [1,1,0]             

   Cartesian axes

     site n.     atom                  positions (alat units)
         1           Ir  tau(   1) = (   0.0000000   0.0000000   0.0000000  )
         2           Ir  tau(   2) = (   0.5000000   0.5000000   0.3509351  )
         3           O   tau(   3) = (   0.1916000   0.8084000   0.3509351  )
         4           O   tau(   4) = (   0.3084000   0.3084000   0.0000000  )
         5           O   tau(   5) = (   0.6916000   0.6916000   0.0000000  )
         6           O   tau(   6) = (   0.8084000   0.1916000   0.3509351  )

   Crystallographic axes

     site n.     atom                  positions (cryst. coord.)
         1           Ir  tau(   1) = (  0.0000000  0.0000000  0.0000000  )
         2           Ir  tau(   2) = (  0.5000000  0.5000000  0.5000000  )
         3           O   tau(   3) = (  0.1916000  0.8084000  0.5000000  )
         4           O   tau(   4) = (  0.3084000  0.3084000  0.0000000  )
         5           O   tau(   5) = (  0.6916000  0.6916000  0.0000000  )
         6           O   tau(   6) = (  0.8084000  0.1916000  0.5000000  )

     number of k points=    90  Methfessel-Paxton smearing, width (Ry)=  0.0050
                       cart. coord. in units 2pi/alat
        k(    1) = (   0.0000000   0.0000000   0.0000000), wk =   0.0011223
        k(    2) = (   0.0000000   0.0000000   0.1295241), wk =   0.0022447
        k(    3) = (   0.0000000   0.0000000   0.2590482), wk =   0.0022447
        k(    4) = (   0.0000000   0.0000000   0.3885722), wk =   0.0022447
        k(    5) = (   0.0000000   0.0000000   0.5180963), wk =   0.0022447
        k(    6) = (   0.0000000   0.0000000   0.6476204), wk =   0.0022447
        k(    7) = (   0.0000000   0.1111111   0.0000000), wk =   0.0044893
        k(    8) = (   0.0000000   0.1111111   0.1295241), wk =   0.0089787
        k(    9) = (   0.0000000   0.1111111   0.2590482), wk =   0.0089787
        k(   10) = (   0.0000000   0.1111111   0.3885722), wk =   0.0089787
        k(   11) = (   0.0000000   0.1111111   0.5180963), wk =   0.0089787
        k(   12) = (   0.0000000   0.1111111   0.6476204), wk =   0.0089787
        k(   13) = (   0.0000000   0.2222222   0.0000000), wk =   0.0044893
        k(   14) = (   0.0000000   0.2222222   0.1295241), wk =   0.0089787
        k(   15) = (   0.0000000   0.2222222   0.2590482), wk =   0.0089787
        k(   16) = (   0.0000000   0.2222222   0.3885722), wk =   0.0089787
        k(   17) = (   0.0000000   0.2222222   0.5180963), wk =   0.0089787
        k(   18) = (   0.0000000   0.2222222   0.6476204), wk =   0.0089787
        k(   19) = (   0.0000000   0.3333333   0.0000000), wk =   0.0044893
        k(   20) = (   0.0000000   0.3333333   0.1295241), wk =   0.0089787
        k(   21) = (   0.0000000   0.3333333   0.2590482), wk =   0.0089787
        k(   22) = (   0.0000000   0.3333333   0.3885722), wk =   0.0089787
        k(   23) = (   0.0000000   0.3333333   0.5180963), wk =   0.0089787
        k(   24) = (   0.0000000   0.3333333   0.6476204), wk =   0.0089787
        k(   25) = (   0.0000000   0.4444444   0.0000000), wk =   0.0044893
        k(   26) = (   0.0000000   0.4444444   0.1295241), wk =   0.0089787
        k(   27) = (   0.0000000   0.4444444   0.2590482), wk =   0.0089787
        k(   28) = (   0.0000000   0.4444444   0.3885722), wk =   0.0089787
        k(   29) = (   0.0000000   0.4444444   0.5180963), wk =   0.0089787
        k(   30) = (   0.0000000   0.4444444   0.6476204), wk =   0.0089787
        k(   31) = (   0.1111111   0.1111111   0.0000000), wk =   0.0044893
        k(   32) = (   0.1111111   0.1111111   0.1295241), wk =   0.0089787
        k(   33) = (   0.1111111   0.1111111   0.2590482), wk =   0.0089787
        k(   34) = (   0.1111111   0.1111111   0.3885722), wk =   0.0089787
        k(   35) = (   0.1111111   0.1111111   0.5180963), wk =   0.0089787
        k(   36) = (   0.1111111   0.1111111   0.6476204), wk =   0.0089787
        k(   37) = (   0.1111111   0.2222222   0.0000000), wk =   0.0089787
        k(   38) = (   0.1111111   0.2222222   0.1295241), wk =   0.0179574
        k(   39) = (   0.1111111   0.2222222   0.2590482), wk =   0.0179574
        k(   40) = (   0.1111111   0.2222222   0.3885722), wk =   0.0179574
        k(   41) = (   0.1111111   0.2222222   0.5180963), wk =   0.0179574
        k(   42) = (   0.1111111   0.2222222   0.6476204), wk =   0.0179574
        k(   43) = (   0.1111111   0.3333333   0.0000000), wk =   0.0089787
        k(   44) = (   0.1111111   0.3333333   0.1295241), wk =   0.0179574
        k(   45) = (   0.1111111   0.3333333   0.2590482), wk =   0.0179574
        k(   46) = (   0.1111111   0.3333333   0.3885722), wk =   0.0179574
        k(   47) = (   0.1111111   0.3333333   0.5180963), wk =   0.0179574
        k(   48) = (   0.1111111   0.3333333   0.6476204), wk =   0.0179574
        k(   49) = (   0.1111111   0.4444444   0.0000000), wk =   0.0089787
        k(   50) = (   0.1111111   0.4444444   0.1295241), wk =   0.0179574
        k(   51) = (   0.1111111   0.4444444   0.2590482), wk =   0.0179574
        k(   52) = (   0.1111111   0.4444444   0.3885722), wk =   0.0179574
        k(   53) = (   0.1111111   0.4444444   0.5180963), wk =   0.0179574
        k(   54) = (   0.1111111   0.4444444   0.6476204), wk =   0.0179574
        k(   55) = (   0.2222222   0.2222222   0.0000000), wk =   0.0044893
        k(   56) = (   0.2222222   0.2222222   0.1295241), wk =   0.0089787
        k(   57) = (   0.2222222   0.2222222   0.2590482), wk =   0.0089787
        k(   58) = (   0.2222222   0.2222222   0.3885722), wk =   0.0089787
        k(   59) = (   0.2222222   0.2222222   0.5180963), wk =   0.0089787
        k(   60) = (   0.2222222   0.2222222   0.6476204), wk =   0.0089787
        k(   61) = (   0.2222222   0.3333333   0.0000000), wk =   0.0089787
        k(   62) = (   0.2222222   0.3333333   0.1295241), wk =   0.0179574
        k(   63) = (   0.2222222   0.3333333   0.2590482), wk =   0.0179574
        k(   64) = (   0.2222222   0.3333333   0.3885722), wk =   0.0179574
        k(   65) = (   0.2222222   0.3333333   0.5180963), wk =   0.0179574
        k(   66) = (   0.2222222   0.3333333   0.6476204), wk =   0.0179574
        k(   67) = (   0.2222222   0.4444444   0.0000000), wk =   0.0089787
        k(   68) = (   0.2222222   0.4444444   0.1295241), wk =   0.0179574
        k(   69) = (   0.2222222   0.4444444   0.2590482), wk =   0.0179574
        k(   70) = (   0.2222222   0.4444444   0.3885722), wk =   0.0179574
        k(   71) = (   0.2222222   0.4444444   0.5180963), wk =   0.0179574
        k(   72) = (   0.2222222   0.4444444   0.6476204), wk =   0.0179574
        k(   73) = (   0.3333333   0.3333333   0.0000000), wk =   0.0044893
        k(   74) = (   0.3333333   0.3333333   0.1295241), wk =   0.0089787
        k(   75) = (   0.3333333   0.3333333   0.2590482), wk =   0.0089787
        k(   76) = (   0.3333333   0.3333333   0.3885722), wk =   0.0089787
        k(   77) = (   0.3333333   0.3333333   0.5180963), wk =   0.0089787
        k(   78) = (   0.3333333   0.3333333   0.6476204), wk =   0.0089787
        k(   79) = (   0.3333333   0.4444444   0.0000000), wk =   0.0089787
        k(   80) = (   0.3333333   0.4444444   0.1295241), wk =   0.0179574
        k(   81) = (   0.3333333   0.4444444   0.2590482), wk =   0.0179574
        k(   82) = (   0.3333333   0.4444444   0.3885722), wk =   0.0179574
        k(   83) = (   0.3333333   0.4444444   0.5180963), wk =   0.0179574
        k(   84) = (   0.3333333   0.4444444   0.6476204), wk =   0.0179574
        k(   85) = (   0.4444444   0.4444444   0.0000000), wk =   0.0044893
        k(   86) = (   0.4444444   0.4444444   0.1295241), wk =   0.0089787
        k(   87) = (   0.4444444   0.4444444   0.2590482), wk =   0.0089787
        k(   88) = (   0.4444444   0.4444444   0.3885722), wk =   0.0089787
        k(   89) = (   0.4444444   0.4444444   0.5180963), wk =   0.0089787
        k(   90) = (   0.4444444   0.4444444   0.6476204), wk =   0.0089787

                       cryst. coord.
        k(    1) = (   0.0000000   0.0000000   0.0000000), wk =   0.0011223
        k(    2) = (   0.0000000   0.0000000   0.0909091), wk =   0.0022447
        k(    3) = (   0.0000000   0.0000000   0.1818182), wk =   0.0022447
        k(    4) = (   0.0000000   0.0000000   0.2727273), wk =   0.0022447
        k(    5) = (   0.0000000   0.0000000   0.3636364), wk =   0.0022447
        k(    6) = (   0.0000000   0.0000000   0.4545455), wk =   0.0022447
        k(    7) = (   0.0000000   0.1111111   0.0000000), wk =   0.0044893
        k(    8) = (   0.0000000   0.1111111   0.0909091), wk =   0.0089787
        k(    9) = (   0.0000000   0.1111111   0.1818182), wk =   0.0089787
        k(   10) = (   0.0000000   0.1111111   0.2727273), wk =   0.0089787
        k(   11) = (   0.0000000   0.1111111   0.3636364), wk =   0.0089787
        k(   12) = (   0.0000000   0.1111111   0.4545455), wk =   0.0089787
        k(   13) = (   0.0000000   0.2222222   0.0000000), wk =   0.0044893
        k(   14) = (   0.0000000   0.2222222   0.0909091), wk =   0.0089787
        k(   15) = (   0.0000000   0.2222222   0.1818182), wk =   0.0089787
        k(   16) = (   0.0000000   0.2222222   0.2727273), wk =   0.0089787
        k(   17) = (   0.0000000   0.2222222   0.3636364), wk =   0.0089787
        k(   18) = (   0.0000000   0.2222222   0.4545455), wk =   0.0089787
        k(   19) = (   0.0000000   0.3333333   0.0000000), wk =   0.0044893
        k(   20) = (   0.0000000   0.3333333   0.0909091), wk =   0.0089787
        k(   21) = (   0.0000000   0.3333333   0.1818182), wk =   0.0089787
        k(   22) = (   0.0000000   0.3333333   0.2727273), wk =   0.0089787
        k(   23) = (   0.0000000   0.3333333   0.3636364), wk =   0.0089787
        k(   24) = (   0.0000000   0.3333333   0.4545455), wk =   0.0089787
        k(   25) = (   0.0000000   0.4444444   0.0000000), wk =   0.0044893
        k(   26) = (   0.0000000   0.4444444   0.0909091), wk =   0.0089787
        k(   27) = (   0.0000000   0.4444444   0.1818182), wk =   0.0089787
        k(   28) = (   0.0000000   0.4444444   0.2727273), wk =   0.0089787
        k(   29) = (   0.0000000   0.4444444   0.3636364), wk =   0.0089787
        k(   30) = (   0.0000000   0.4444444   0.4545455), wk =   0.0089787
        k(   31) = (   0.1111111   0.1111111   0.0000000), wk =   0.0044893
        k(   32) = (   0.1111111   0.1111111   0.0909091), wk =   0.0089787
        k(   33) = (   0.1111111   0.1111111   0.1818182), wk =   0.0089787
        k(   34) = (   0.1111111   0.1111111   0.2727273), wk =   0.0089787
        k(   35) = (   0.1111111   0.1111111   0.3636364), wk =   0.0089787
        k(   36) = (   0.1111111   0.1111111   0.4545455), wk =   0.0089787
        k(   37) = (   0.1111111   0.2222222   0.0000000), wk =   0.0089787
        k(   38) = (   0.1111111   0.2222222   0.0909091), wk =   0.0179574
        k(   39) = (   0.1111111   0.2222222   0.1818182), wk =   0.0179574
        k(   40) = (   0.1111111   0.2222222   0.2727273), wk =   0.0179574
        k(   41) = (   0.1111111   0.2222222   0.3636364), wk =   0.0179574
        k(   42) = (   0.1111111   0.2222222   0.4545455), wk =   0.0179574
        k(   43) = (   0.1111111   0.3333333   0.0000000), wk =   0.0089787
        k(   44) = (   0.1111111   0.3333333   0.0909091), wk =   0.0179574
        k(   45) = (   0.1111111   0.3333333   0.1818182), wk =   0.0179574
        k(   46) = (   0.1111111   0.3333333   0.2727273), wk =   0.0179574
        k(   47) = (   0.1111111   0.3333333   0.3636364), wk =   0.0179574
        k(   48) = (   0.1111111   0.3333333   0.4545455), wk =   0.0179574
        k(   49) = (   0.1111111   0.4444444   0.0000000), wk =   0.0089787
        k(   50) = (   0.1111111   0.4444444   0.0909091), wk =   0.0179574
        k(   51) = (   0.1111111   0.4444444   0.1818182), wk =   0.0179574
        k(   52) = (   0.1111111   0.4444444   0.2727273), wk =   0.0179574
        k(   53) = (   0.1111111   0.4444444   0.3636364), wk =   0.0179574
        k(   54) = (   0.1111111   0.4444444   0.4545455), wk =   0.0179574
        k(   55) = (   0.2222222   0.2222222   0.0000000), wk =   0.0044893
        k(   56) = (   0.2222222   0.2222222   0.0909091), wk =   0.0089787
        k(   57) = (   0.2222222   0.2222222   0.1818182), wk =   0.0089787
        k(   58) = (   0.2222222   0.2222222   0.2727273), wk =   0.0089787
        k(   59) = (   0.2222222   0.2222222   0.3636364), wk =   0.0089787
        k(   60) = (   0.2222222   0.2222222   0.4545455), wk =   0.0089787
        k(   61) = (   0.2222222   0.3333333   0.0000000), wk =   0.0089787
        k(   62) = (   0.2222222   0.3333333   0.0909091), wk =   0.0179574
        k(   63) = (   0.2222222   0.3333333   0.1818182), wk =   0.0179574
        k(   64) = (   0.2222222   0.3333333   0.2727273), wk =   0.0179574
        k(   65) = (   0.2222222   0.3333333   0.3636364), wk =   0.0179574
        k(   66) = (   0.2222222   0.3333333   0.4545455), wk =   0.0179574
        k(   67) = (   0.2222222   0.4444444   0.0000000), wk =   0.0089787
        k(   68) = (   0.2222222   0.4444444   0.0909091), wk =   0.0179574
        k(   69) = (   0.2222222   0.4444444   0.1818182), wk =   0.0179574
        k(   70) = (   0.2222222   0.4444444   0.2727273), wk =   0.0179574
        k(   71) = (   0.2222222   0.4444444   0.3636364), wk =   0.0179574
        k(   72) = (   0.2222222   0.4444444   0.4545455), wk =   0.0179574
        k(   73) = (   0.3333333   0.3333333   0.0000000), wk =   0.0044893
        k(   74) = (   0.3333333   0.3333333   0.0909091), wk =   0.0089787
        k(   75) = (   0.3333333   0.3333333   0.1818182), wk =   0.0089787
        k(   76) = (   0.3333333   0.3333333   0.2727273), wk =   0.0089787
        k(   77) = (   0.3333333   0.3333333   0.3636364), wk =   0.0089787
        k(   78) = (   0.3333333   0.3333333   0.4545455), wk =   0.0089787
        k(   79) = (   0.3333333   0.4444444   0.0000000), wk =   0.0089787
        k(   80) = (   0.3333333   0.4444444   0.0909091), wk =   0.0179574
        k(   81) = (   0.3333333   0.4444444   0.1818182), wk =   0.0179574
        k(   82) = (   0.3333333   0.4444444   0.2727273), wk =   0.0179574
        k(   83) = (   0.3333333   0.4444444   0.3636364), wk =   0.0179574
        k(   84) = (   0.3333333   0.4444444   0.4545455), wk =   0.0179574
        k(   85) = (   0.4444444   0.4444444   0.0000000), wk =   0.0044893
        k(   86) = (   0.4444444   0.4444444   0.0909091), wk =   0.0089787
        k(   87) = (   0.4444444   0.4444444   0.1818182), wk =   0.0089787
        k(   88) = (   0.4444444   0.4444444   0.2727273), wk =   0.0089787
        k(   89) = (   0.4444444   0.4444444   0.3636364), wk =   0.0089787
        k(   90) = (   0.4444444   0.4444444   0.4545455), wk =   0.0089787

     Dense  grid:    42999 G-vectors     FFT dimensions: (  50,  50,  36)

     Dynamical RAM for                 wfc:       0.36 MB

     Dynamical RAM for     wfc (w. buffer):      32.46 MB

     Dynamical RAM for           str. fact:       0.04 MB

     Dynamical RAM for           local pot:       0.00 MB

     Dynamical RAM for          nlocal pot:       0.46 MB

     Dynamical RAM for                qrad:      20.10 MB

     Dynamical RAM for          rho,v,vnew:       0.70 MB

     Dynamical RAM for               rhoin:       0.23 MB

     Dynamical RAM for            rho*nmix:       1.31 MB

     Dynamical RAM for           G-vectors:       0.09 MB

     Dynamical RAM for          h,s,v(r/c):       0.04 MB

     Dynamical RAM for          <psi|beta>:       0.38 MB

     Dynamical RAM for                 psi:       0.71 MB

     Dynamical RAM for                hpsi:       0.71 MB

     Dynamical RAM for      wfcinit/wfcrot:       0.67 MB

     Estimated static dynamical RAM per process >      54.45 MB

     Estimated max dynamical RAM per process >      57.62 MB

     Estimated total dynamical RAM >       1.80 GB

     Initial potential from superposition of free atoms

     starting charge      57.9997, renormalised to      58.0000
     Starting wfcs are   72 randomized atomic wfcs

     total cpu time spent up to now is        4.7 secs

     Self-consistent Calculation

     iteration #  1     ecut=    80.00 Ry     beta= 0.70
     Davidson diagonalization with overlap

---- Real-time Memory Report at c_bands before calling an iterative solver
           109 MiB given to the printing process from OS
             0 MiB allocation reported by mallinfo(arena+hblkhd)
        227745 MiB available memory on the node where the printing process lives
------------------
     ethr =  1.00E-02,  avg # of iterations =  2.7

     total cpu time spent up to now is       20.4 secs

     total energy              =    -552.42668510 Ry
     estimated scf accuracy    <       1.21487709 Ry

     iteration #  2     ecut=    80.00 Ry     beta= 0.70
     Davidson diagonalization with overlap

---- Real-time Memory Report at c_bands before calling an iterative solver
           116 MiB given to the printing process from OS
             0 MiB allocation reported by mallinfo(arena+hblkhd)
        227607 MiB available memory on the node where the printing process lives
------------------
     ethr =  2.09E-03,  avg # of iterations =  2.0

     total cpu time spent up to now is       37.3 secs

     total energy              =    -552.28283113 Ry
     estimated scf accuracy    <       4.27948452 Ry

     iteration #  3     ecut=    80.00 Ry     beta= 0.70
     Davidson diagonalization with overlap

---- Real-time Memory Report at c_bands before calling an iterative solver
           120 MiB given to the printing process from OS
             0 MiB allocation reported by mallinfo(arena+hblkhd)
        227553 MiB available memory on the node where the printing process lives
------------------
     ethr =  2.09E-03,  avg # of iterations =  2.0

     total cpu time spent up to now is       53.2 secs

     total energy              =    -553.07561513 Ry
     estimated scf accuracy    <       0.03378870 Ry

     iteration #  4     ecut=    80.00 Ry     beta= 0.70
     Davidson diagonalization with overlap

---- Real-time Memory Report at c_bands before calling an iterative solver
           121 MiB given to the printing process from OS
             0 MiB allocation reported by mallinfo(arena+hblkhd)
        227528 MiB available memory on the node where the printing process lives
------------------
     ethr =  5.83E-05,  avg # of iterations =  2.6

     total cpu time spent up to now is       69.3 secs

     total energy              =    -553.07920338 Ry
     estimated scf accuracy    <       0.00480396 Ry

     iteration #  5     ecut=    80.00 Ry     beta= 0.70
     Davidson diagonalization with overlap

---- Real-time Memory Report at c_bands before calling an iterative solver
           122 MiB given to the printing process from OS
             0 MiB allocation reported by mallinfo(arena+hblkhd)
        227514 MiB available memory on the node where the printing process lives
------------------
     ethr =  8.28E-06,  avg # of iterations =  2.3

     total cpu time spent up to now is       83.5 secs

     total energy              =    -553.08004429 Ry
     estimated scf accuracy    <       0.00026759 Ry

     iteration #  6     ecut=    80.00 Ry     beta= 0.70
     Davidson diagonalization with overlap

---- Real-time Memory Report at c_bands before calling an iterative solver
           122 MiB given to the printing process from OS
             0 MiB allocation reported by mallinfo(arena+hblkhd)
        227508 MiB available memory on the node where the printing process lives
------------------
     ethr =  4.61E-07,  avg # of iterations =  2.5

     total cpu time spent up to now is       97.8 secs

     total energy              =    -553.08007725 Ry
     estimated scf accuracy    <       0.00001078 Ry

     iteration #  7     ecut=    80.00 Ry     beta= 0.70
     Davidson diagonalization with overlap

---- Real-time Memory Report at c_bands before calling an iterative solver
           122 MiB given to the printing process from OS
             0 MiB allocation reported by mallinfo(arena+hblkhd)
        227505 MiB available memory on the node where the printing process lives
------------------
     ethr =  1.86E-08,  avg # of iterations =  2.0

     total cpu time spent up to now is      114.3 secs

     total energy              =    -553.08008079 Ry
     estimated scf accuracy    <       0.00000061 Ry

     iteration #  8     ecut=    80.00 Ry     beta= 0.70
     Davidson diagonalization with overlap

---- Real-time Memory Report at c_bands before calling an iterative solver
           124 MiB given to the printing process from OS
             0 MiB allocation reported by mallinfo(arena+hblkhd)
        227477 MiB available memory on the node where the printing process lives
------------------
     ethr =  1.05E-09,  avg # of iterations =  2.0

     total cpu time spent up to now is      128.4 secs

     total energy              =    -553.08008081 Ry
     estimated scf accuracy    <       0.00000010 Ry

     iteration #  9     ecut=    80.00 Ry     beta= 0.70
     Davidson diagonalization with overlap

---- Real-time Memory Report at c_bands before calling an iterative solver
           124 MiB given to the printing process from OS
             0 MiB allocation reported by mallinfo(arena+hblkhd)
        227477 MiB available memory on the node where the printing process lives
------------------
     ethr =  1.77E-10,  avg # of iterations =  2.1

     total cpu time spent up to now is      144.1 secs

     total energy              =    -553.08008083 Ry
     estimated scf accuracy    <          4.3E-09 Ry

     iteration # 10     ecut=    80.00 Ry     beta= 0.70
     Davidson diagonalization with overlap

---- Real-time Memory Report at c_bands before calling an iterative solver
           126 MiB given to the printing process from OS
             0 MiB allocation reported by mallinfo(arena+hblkhd)
        227474 MiB available memory on the node where the printing process lives
------------------
     ethr =  7.42E-12,  avg # of iterations =  2.1

     total cpu time spent up to now is      160.0 secs

     End of self-consistent calculation

          k = 0.0000 0.0000 0.0000 (  5409 PWs)   bands (ev):

   -79.3842 -79.3842 -79.3829 -79.3829 -46.2267 -46.2267 -46.2159 -46.2159
   -32.7654 -32.7654 -32.7543 -32.7543 -32.6226 -32.6226 -32.6087 -32.6087
    -7.0734  -7.0734  -5.9175  -5.9175  -5.0025  -5.0025  -4.8011  -4.8011
     4.2695   4.2695   4.5168   4.5168   6.0333   6.0333   6.1448   6.1448
     6.2585   6.2585   8.7868   8.7868   8.9388   8.9388   9.1965   9.1965
    10.3339  10.3339  10.9893  10.9893  10.9913  10.9913  11.0318  11.0318
    11.2037  11.2037  11.3844  11.3844  11.6476  11.6476  11.6736  11.6736
    12.0583  12.0583  14.6452  14.6452  15.0713  15.0713  17.6889  17.6889
    17.8973  17.8973  18.0460  18.0460  19.4487  19.4487

     occupation numbers 
     1.0000   1.0000   1.0000   1.0000   1.0000   1.0000   1.0000   1.0000
     1.0000   1.0000   1.0000   1.0000   1.0000   1.0000   1.0000   1.0000
     1.0000   1.0000   1.0000   1.0000   1.0000   1.0000   1.0000   1.0000
     1.0000   1.0000   1.0000   1.0000   1.0000   1.0000   1.0000   1.0000
     1.0000   1.0000   1.0000   1.0000   1.0000   1.0000   1.0000   1.0000
     1.0000   1.0000   1.0000   1.0000   1.0000   1.0000   1.0000   1.0000
     1.0000   1.0000   1.0000   1.0000   1.0000   1.0000   1.0000   1.0000
     1.0000   1.0000  -0.0000  -0.0000  -0.0000  -0.0000  -0.0000  -0.0000
    -0.0000  -0.0000  -0.0000  -0.0000  -0.0000  -0.0000

          k = 0.0000 0.0000 0.1295 (  5381 PWs)   bands (ev):

   -79.3840 -79.3840 -79.3827 -79.3827 -46.2274 -46.2274 -46.2171 -46.2171
   -32.7671 -32.7671 -32.7588 -32.7588 -32.6261 -32.6261 -32.6103 -32.6103
    -6.9976  -6.9976  -5.8775  -5.8775  -5.0385  -5.0385  -4.8491  -4.8491
     4.3795   4.3795   4.5967   4.5967   6.0996   6.0996   6.1901   6.1901
     6.3382   6.3382   8.4830   8.4830   9.0028   9.0028   9.2544   9.2544
     9.8305   9.8305  10.3616  10.3616  10.4829  10.4829  11.3769  11.3769
    11.5197  11.5197  11.5929  11.5929  11.5996  11.5996  12.1193  12.1193
    12.2745  12.2745  14.8261  14.8261  14.9931  14.9931  17.4889  17.4889
    17.8156  17.8156  18.1247  18.1247  19.2886  19.2886

     occupation numbers 
     1.0000   1.0000   1.0000   1.0000   1.0000   1.0000   1.0000   1.0000
     1.0000   1.0000   1.0000   1.0000   1.0000   1.0000   1.0000   1.0000
     1.0000   1.0000   1.0000   1.0000   1.0000   1.0000   1.0000   1.0000
     1.0000   1.0000   1.0000   1.0000   1.0000   1.0000   1.0000   1.0000
     1.0000   1.0000   1.0000   1.0000   1.0000   1.0000   1.0000   1.0000
     1.0000   1.0000   1.0000   1.0000   1.0000   1.0000   1.0000   1.0000
     1.0000   1.0000   1.0000   1.0000   1.0000   1.0000   1.0000   1.0000
     1.0000   1.0000  -0.0000  -0.0000  -0.0000  -0.0000  -0.0000  -0.0000
    -0.0000  -0.0000  -0.0000  -0.0000  -0.0000  -0.0000

          k = 0.0000 0.0000 0.2590 (  5377 PWs)   bands (ev):

   -79.3834 -79.3834 -79.3823 -79.3823 -46.2291 -46.2291 -46.2201 -46.2201
   -32.7732 -32.7732 -32.7712 -32.7712 -32.6338 -32.6338 -32.6145 -32.6145
    -6.7846  -6.7846  -5.7764  -5.7764  -5.1319  -5.1319  -4.9761  -4.9761
     4.6950   4.6950   4.8183   4.8183   6.2817   6.2817   6.3225   6.3225
     6.5768   6.5768   7.7952   7.7952   8.8846   8.8846   9.2884   9.2884
     9.3553   9.3553   9.7990   9.7990   9.8127   9.8127  11.0280  11.0280
    11.7220  11.7220  11.7735  11.7735  11.9867  11.9867  12.7547  12.7547
    12.7887  12.7887  14.7675  14.7675  15.2728  15.2728  17.0200  17.0200
    17.3231  17.3231  18.4040  18.4040  19.2241  19.2241

     occupation numbers 
     1.0000   1.0000   1.0000   1.0000   1.0000   1.0000   1.0000   1.0000
     1.0000   1.0000   1.0000   1.0000   1.0000   1.0000   1.0000   1.0000
     1.0000   1.0000   1.0000   1.0000   1.0000   1.0000   1.0000   1.0000
     1.0000   1.0000   1.0000   1.0000   1.0000   1.0000   1.0000   1.0000
     1.0000   1.0000   1.0000   1.0000   1.0000   1.0000   1.0000   1.0000
     1.0000   1.0000   1.0000   1.0000   1.0000   1.0000   1.0000   1.0000
     1.0000   1.0000   1.0000   1.0000   1.0000   1.0000   1.0000   1.0000
     1.0000   1.0000  -0.0000  -0.0000  -0.0000  -0.0000  -0.0000  -0.0000
    -0.0000  -0.0000  -0.0000  -0.0000  -0.0000  -0.0000

          k = 0.0000 0.0000 0.3886 (  5389 PWs)   bands (ev):

   -79.3826 -79.3826 -79.3818 -79.3818 -46.2312 -46.2312 -46.2242 -46.2242
   -32.7882 -32.7882 -32.7849 -32.7849 -32.6395 -32.6395 -32.6196 -32.6196
    -6.4757  -6.4757  -5.6663  -5.6663  -5.2457  -5.2457  -5.1393  -5.1393
     5.1252   5.1252   5.1647   5.1647   6.5172   6.5172   6.5388   6.5388
     6.9698   6.9698   7.0930   7.0930   8.0999   8.0999   8.9909   8.9909
     9.1868   9.1868   9.5020   9.5020   9.8051   9.8051  10.4170  10.4170
    11.8022  11.8022  12.0334  12.0334  12.1801  12.1801  13.3053  13.3053
    13.3319  13.3319  14.4289  14.4289  15.7525  15.7525  16.5586  16.5586
    16.8483  16.8483  17.8239  17.8239  20.1270  20.1270

     occupation numbers 
     1.0000   1.0000   1.0000   1.0000   1.0000   1.0000   1.0000   1.0000
     1.0000   1.0000   1.0000   1.0000   1.0000   1.0000   1.0000   1.0000
     1.0000   1.0000   1.0000   1.0000   1.0000   1.0000   1.0000   1.0000
     1.0000   1.0000   1.0000   1.0000   1.0000   1.0000   1.0000   1.0000
     1.0000   1.0000   1.0000   1.0000   1.0000   1.0000   1.0000   1.0000
     1.0000   1.0000   1.0000   1.0000   1.0000   1.0000   1.0000   1.0000
     1.0000   1.0000   1.0000   1.0000   1.0000   1.0000   1.0000   1.0000
     1.0000   1.0000  -0.0000  -0.0000  -0.0000  -0.0000  -0.0000  -0.0000
    -0.0000  -0.0000  -0.0000  -0.0000  -0.0000  -0.0000

          k = 0.0000 0.0000 0.5181 (  5369 PWs)   bands (ev):

   -79.3819 -79.3819 -79.3813 -79.3813 -46.2328 -46.2328 -46.2284 -46.2284
   -32.8039 -32.8039 -32.7995 -32.7995 -32.6399 -32.6399 -32.6250 -32.6250
    -6.1350  -6.1350  -5.6133  -5.6133  -5.3398  -5.3398  -5.2888  -5.2888
     5.4268   5.4268   5.6576   5.6576   6.4788   6.4788   6.8187   6.8187
     6.8773   6.8773   7.3969   7.3969   7.5359   7.5359   8.5293   8.5293
     8.6653   8.6653   9.6834   9.6834   9.7337   9.7337   9.9493   9.9493
    11.7916  11.7916  12.1573  12.1573  12.4067  12.4067  13.5974  13.5974
    13.7806  13.7806  14.1146  14.1146  16.0440  16.0440  16.2523  16.2523
    16.5633  16.5633  17.1598  17.1598  21.2724  21.2724

     occupation numbers 
     1.0000   1.0000   1.0000   1.0000   1.0000   1.0000   1.0000   1.0000
     1.0000   1.0000   1.0000   1.0000   1.0000   1.0000   1.0000   1.0000
     1.0000   1.0000   1.0000   1.0000   1.0000   1.0000   1.0000   1.0000
     1.0000   1.0000   1.0000   1.0000   1.0000   1.0000   1.0000   1.0000
     1.0000   1.0000   1.0000   1.0000   1.0000   1.0000   1.0000   1.0000
     1.0000   1.0000   1.0000   1.0000   1.0000   1.0000   1.0000   1.0000
     1.0000   1.0000   1.0000   1.0000   1.0000   1.0000   1.0000   1.0000
     1.0340   1.0340  -0.0000  -0.0000  -0.0000  -0.0000  -0.0000  -0.0000
    -0.0000  -0.0000  -0.0000  -0.0000  -0.0000  -0.0000

          k = 0.0000 0.0000 0.6476 (  5378 PWs)   bands (ev):

   -79.3814 -79.3814 -79.3812 -79.3812 -46.2330 -46.2330 -46.2315 -46.2315
   -32.8123 -32.8123 -32.8105 -32.8105 -32.6361 -32.6361 -32.6306 -32.6306
    -5.8398  -5.8398  -5.6608  -5.6608  -5.3953  -5.3953  -5.3829  -5.3829
     5.6486   5.6486   5.8008   5.8008   6.5218   6.5218   6.9001   6.9001
     7.0666   7.0666   7.0674   7.0674   8.1333   8.1333   8.2362   8.2362
     8.3341   8.3341   8.9180   8.9180   9.9049   9.9049   9.9848   9.9848
    11.8311  11.8311  11.9854  11.9854  12.8483  12.8483  13.3121  13.3121
    14.0624  14.0624  14.1250  14.1250  16.0903  16.0903  16.1169  16.1169
    16.5464  16.5464  16.7241  16.7241  22.4020  22.4020

     occupation numbers 
     1.0000   1.0000   1.0000   1.0000   1.0000   1.0000   1.0000   1.0000
     1.0000   1.0000   1.0000   1.0000   1.0000   1.0000   1.0000   1.0000
     1.0000   1.0000   1.0000   1.0000   1.0000   1.0000   1.0000   1.0000
     1.0000   1.0000   1.0000   1.0000   1.0000   1.0000   1.0000   1.0000
     1.0000   1.0000   1.0000   1.0000   1.0000   1.0000   1.0000   1.0000
     1.0000   1.0000   1.0000   1.0000   1.0000   1.0000   1.0000   1.0000
     1.0000   1.0000   1.0000   1.0000   1.0000   1.0000   1.0000   1.0000
    -0.0003  -0.0003  -0.0000  -0.0000  -0.0000  -0.0000  -0.0000  -0.0000
    -0.0000  -0.0000  -0.0000  -0.0000  -0.0000  -0.0000

          k = 0.0000 0.1111 0.0000 (  5373 PWs)   bands (ev):

   -79.3842 -79.3842 -79.3829 -79.3829 -46.2264 -46.2264 -46.2163 -46.2163
   -32.7647 -32.7647 -32.7542 -32.7542 -32.6226 -32.6226 -32.6095 -32.6095
    -7.0267  -7.0267  -5.9113  -5.9113  -5.0428  -5.0428  -4.8490  -4.8490
     4.3891   4.3891   4.6067   4.6067   6.0518   6.0518   6.1557   6.1557
     6.3354   6.3354   8.7290   8.7290   8.7579   8.7579   9.0218   9.0218
    10.0696  10.0696  10.5633  10.5633  10.7852  10.7852  11.3081  11.3081
    11.3878  11.3878  11.5559  11.5559  11.6774  11.6774  11.8150  11.8150
    12.2236  12.2236  14.8427  14.8427  14.9860  14.9860  17.6428  17.6428
    17.9790  17.9790  18.1134  18.1134  19.3369  19.3369

     occupation numbers 
     1.0000   1.0000   1.0000   1.0000   1.0000   1.0000   1.0000   1.0000
     1.0000   1.0000   1.0000   1.0000   1.0000   1.0000   1.0000   1.0000
     1.0000   1.0000   1.0000   1.0000   1.0000   1.0000   1.0000   1.0000
     1.0000   1.0000   1.0000   1.0000   1.0000   1.0000   1.0000   1.0000
     1.0000   1.0000   1.0000   1.0000   1.0000   1.0000   1.0000   1.0000
     1.0000   1.0000   1.0000   1.0000   1.0000   1.0000   1.0000   1.0000
     1.0000   1.0000   1.0000   1.0000   1.0000   1.0000   1.0000   1.0000
     1.0000   1.0000  -0.0000  -0.0000  -0.0000  -0.0000  -0.0000  -0.0000
    -0.0000  -0.0000  -0.0000  -0.0000  -0.0000  -0.0000

          k = 0.0000 0.1111 0.1295 (  5374 PWs)   bands (ev):

   -79.3839 -79.3839 -79.3828 -79.3828 -46.2270 -46.2270 -46.2174 -46.2174
   -32.7668 -32.7668 -32.7584 -32.7584 -32.6261 -32.6261 -32.6111 -32.6111
    -6.9520  -6.9520  -5.8699  -5.8699  -5.0780  -5.0780  -4.8952  -4.8952
     4.4929   4.4929   4.6859   4.6859   6.1083   6.1083   6.1918   6.1918
     6.4343   6.4343   8.4110   8.4110   8.8257   8.8257   9.0836   9.0836
     9.6197   9.6197  10.3259  10.3259  10.3879  10.3879  11.3599  11.3599
    11.5333  11.5333  11.7143  11.7143  11.7583  11.7583  12.1546  12.1546
    12.4056  12.4056  14.8946  14.8946  15.0258  15.0258  17.4092  17.4092
    17.7262  17.7262  18.3819  18.3819  19.1956  19.1956

     occupation numbers 
     1.0000   1.0000   1.0000   1.0000   1.0000   1.0000   1.0000   1.0000
     1.0000   1.0000   1.0000   1.0000   1.0000   1.0000   1.0000   1.0000
     1.0000   1.0000   1.0000   1.0000   1.0000   1.0000   1.0000   1.0000
     1.0000   1.0000   1.0000   1.0000   1.0000   1.0000   1.0000   1.0000
     1.0000   1.0000   1.0000   1.0000   1.0000   1.0000   1.0000   1.0000
     1.0000   1.0000   1.0000   1.0000   1.0000   1.0000   1.0000   1.0000
     1.0000   1.0000   1.0000   1.0000   1.0000   1.0000   1.0000   1.0000
     1.0000   1.0000  -0.0000  -0.0000  -0.0000  -0.0000  -0.0000  -0.0000
    -0.0000  -0.0000  -0.0000  -0.0000  -0.0000  -0.0000

          k = 0.0000 0.1111 0.2590 (  5370 PWs)   bands (ev):

   -79.3834 -79.3834 -79.3823 -79.3823 -46.2288 -46.2288 -46.2203 -46.2203
   -32.7752 -32.7752 -32.7687 -32.7687 -32.6338 -32.6338 -32.6151 -32.6151
    -6.7426  -6.7426  -5.7657  -5.7657  -5.1684  -5.1684  -5.0165  -5.0165
     4.7880   4.7880   4.9055   4.9055   6.2693   6.2693   6.3183   6.3183
     6.7032   6.7032   7.7237   7.7237   8.6261   8.6261   9.1020   9.1020
     9.3822   9.3822   9.7390   9.7390   9.8270   9.8270  11.1343  11.1343
    11.5519  11.5519  11.9417  11.9417  12.1075  12.1075  12.7085  12.7085
    12.8655  12.8655  14.6899  14.6899  15.4344  15.4344  16.9088  16.9088
    17.2282  17.2282  18.5649  18.5649  19.2772  19.2772

     occupation numbers 
     1.0000   1.0000   1.0000   1.0000   1.0000   1.0000   1.0000   1.0000
     1.0000   1.0000   1.0000   1.0000   1.0000   1.0000   1.0000   1.0000
     1.0000   1.0000   1.0000   1.0000   1.0000   1.0000   1.0000   1.0000
     1.0000   1.0000   1.0000   1.0000   1.0000   1.0000   1.0000   1.0000
     1.0000   1.0000   1.0000   1.0000   1.0000   1.0000   1.0000   1.0000
     1.0000   1.0000   1.0000   1.0000   1.0000   1.0000   1.0000   1.0000
     1.0000   1.0000   1.0000   1.0000   1.0000   1.0000   1.0000   1.0000
     1.0000   1.0000  -0.0000  -0.0000  -0.0000  -0.0000  -0.0000  -0.0000
    -0.0000  -0.0000  -0.0000  -0.0000  -0.0000  -0.0000

          k = 0.0000 0.1111 0.3886 (  5383 PWs)   bands (ev):

   -79.3826 -79.3826 -79.3818 -79.3818 -46.2310 -46.2310 -46.2244 -46.2244
   -32.7910 -32.7910 -32.7819 -32.7819 -32.6395 -32.6395 -32.6199 -32.6199
    -6.4410  -6.4410  -5.6557  -5.6557  -5.2753  -5.2753  -5.1681  -5.1681
     5.1865   5.1865   5.2398   5.2398   6.4650   6.4650   6.5445   6.5445
     7.0266   7.0266   7.1496   7.1496   7.8841   7.8841   9.0455   9.0455
     9.2123   9.2123   9.4435   9.4435   9.6510   9.6510  10.5408  10.5408
    11.7942  11.7942  12.0149  12.0149  12.2535  12.2535  13.2170  13.2170
    13.3747  13.3747  14.3913  14.3913  15.8571  15.8571  16.4030  16.4030
    16.7783  16.7783  18.0131  18.0131  20.2266  20.2266

     occupation numbers 
     1.0000   1.0000   1.0000   1.0000   1.0000   1.0000   1.0000   1.0000
     1.0000   1.0000   1.0000   1.0000   1.0000   1.0000   1.0000   1.0000
     1.0000   1.0000   1.0000   1.0000   1.0000   1.0000   1.0000   1.0000
     1.0000   1.0000   1.0000   1.0000   1.0000   1.0000   1.0000   1.0000
     1.0000   1.0000   1.0000   1.0000   1.0000   1.0000   1.0000   1.0000
     1.0000   1.0000   1.0000   1.0000   1.0000   1.0000   1.0000   1.0000
     1.0000   1.0000   1.0000   1.0000   1.0000   1.0000   1.0000   1.0000
     1.0000   1.0000  -0.0000  -0.0000  -0.0000  -0.0000  -0.0000  -0.0000
    -0.0000  -0.0000  -0.0000  -0.0000  -0.0000  -0.0000

          k = 0.0000 0.1111 0.5181 (  5384 PWs)   bands (ev):

   -79.3819 -79.3819 -79.3814 -79.3814 -46.2327 -46.2327 -46.2285 -46.2285
   -32.8071 -32.8071 -32.7963 -32.7963 -32.6402 -32.6402 -32.6247 -32.6247
    -6.1140  -6.1140  -5.6173  -5.6173  -5.3593  -5.3593  -5.2890  -5.2890
     5.4769   5.4769   5.6846   5.6846   6.3133   6.3133   6.7615   6.7615
     7.0009   7.0009   7.3246   7.3246   7.6673   7.6673   8.5644   8.5644
     8.7258   8.7258   9.6011   9.6011   9.8125   9.8125   9.8857   9.8857
    11.8438  11.8438  12.1733  12.1733  12.2884  12.2884  13.4361  13.4361
    13.7822  13.7822  14.1861  14.1861  15.9249  15.9249  16.0496  16.0496
    16.6790  16.6790  17.4754  17.4754  21.3397  21.3397

     occupation numbers 
     1.0000   1.0000   1.0000   1.0000   1.0000   1.0000   1.0000   1.0000
     1.0000   1.0000   1.0000   1.0000   1.0000   1.0000   1.0000   1.0000
     1.0000   1.0000   1.0000   1.0000   1.0000   1.0000   1.0000   1.0000
     1.0000   1.0000   1.0000   1.0000   1.0000   1.0000   1.0000   1.0000
     1.0000   1.0000   1.0000   1.0000   1.0000   1.0000   1.0000   1.0000
     1.0000   1.0000   1.0000   1.0000   1.0000   1.0000   1.0000   1.0000
     1.0000   1.0000   1.0000   1.0000   1.0000   1.0000   1.0000   1.0000
     1.0346   1.0346  -0.0000  -0.0000  -0.0000  -0.0000  -0.0000  -0.0000
    -0.0000  -0.0000  -0.0000  -0.0000  -0.0000  -0.0000

          k = 0.0000 0.1111 0.6476 (  5370 PWs)   bands (ev):

   -79.3814 -79.3814 -79.3812 -79.3812 -46.2331 -46.2331 -46.2315 -46.2315
   -32.8168 -32.8168 -32.8061 -32.8061 -32.6377 -32.6377 -32.6291 -32.6291
    -5.8415  -5.8415  -5.6786  -5.6786  -5.4133  -5.4133  -5.3417  -5.3417
     5.6683   5.6683   5.8160   5.8160   6.2954   6.2954   6.6078   6.6078
     7.2891   7.2891   7.3077   7.3077   8.1851   8.1851   8.2602   8.2602
     8.4285   8.4285   9.0481   9.0481   9.8294   9.8294   9.9009   9.9009
    11.8451  11.8451  11.9848  11.9848  12.6979  12.6979  13.1666  13.1666
    14.0138  14.0138  14.2511  14.2511  15.7719  15.7719  15.8805  15.8805
    16.8331  16.8331  17.1327  17.1327  22.4330  22.4330

     occupation numbers 
     1.0000   1.0000   1.0000   1.0000   1.0000   1.0000   1.0000   1.0000
     1.0000   1.0000   1.0000   1.0000   1.0000   1.0000   1.0000   1.0000
     1.0000   1.0000   1.0000   1.0000   1.0000   1.0000   1.0000   1.0000
     1.0000   1.0000   1.0000   1.0000   1.0000   1.0000   1.0000   1.0000
     1.0000   1.0000   1.0000   1.0000   1.0000   1.0000   1.0000   1.0000
     1.0000   1.0000   1.0000   1.0000   1.0000   1.0000   1.0000   1.0000
     1.0000   1.0000   1.0000   1.0000   1.0000   1.0000   1.0000   1.0000
    -0.0057  -0.0057  -0.0000  -0.0000  -0.0000  -0.0000  -0.0000  -0.0000
    -0.0000  -0.0000  -0.0000  -0.0000  -0.0000  -0.0000

          k = 0.0000 0.2222 0.0000 (  5367 PWs)   bands (ev):

   -79.3840 -79.3840 -79.3830 -79.3830 -46.2254 -46.2254 -46.2172 -46.2172
   -32.7628 -32.7628 -32.7543 -32.7543 -32.6225 -32.6225 -32.6119 -32.6119
    -6.8907  -6.8907  -5.9078  -5.9078  -5.1562  -5.1562  -4.9627  -4.9627
     4.7185   4.7185   4.8637   4.8637   6.0981   6.0981   6.1839   6.1839
     6.5681   6.5681   8.3030   8.3030   8.4768   8.4768   8.7128   8.7128
     9.6233   9.6233   9.8391   9.8391  10.6292  10.6292  11.4174  11.4174
    11.6264  11.6264  11.7261  11.7261  11.9743  11.9743  12.1250  12.1250
    12.5489  12.5489  14.7012  14.7012  15.4166  15.4166  17.5101  17.5101
    17.8042  17.8042  18.6985  18.6985  19.0133  19.0133

     occupation numbers 
     1.0000   1.0000   1.0000   1.0000   1.0000   1.0000   1.0000   1.0000
     1.0000   1.0000   1.0000   1.0000   1.0000   1.0000   1.0000   1.0000
     1.0000   1.0000   1.0000   1.0000   1.0000   1.0000   1.0000   1.0000
     1.0000   1.0000   1.0000   1.0000   1.0000   1.0000   1.0000   1.0000
     1.0000   1.0000   1.0000   1.0000   1.0000   1.0000   1.0000   1.0000
     1.0000   1.0000   1.0000   1.0000   1.0000   1.0000   1.0000   1.0000
     1.0000   1.0000   1.0000   1.0000   1.0000   1.0000   1.0000   1.0000
     1.0000   1.0000  -0.0000  -0.0000  -0.0000  -0.0000  -0.0000  -0.0000
    -0.0000  -0.0000  -0.0000  -0.0000  -0.0000  -0.0000

          k = 0.0000 0.2222 0.1295 (  5369 PWs)   bands (ev):

   -79.3838 -79.3838 -79.3829 -79.3829 -46.2262 -46.2262 -46.2183 -46.2183
   -32.7661 -32.7661 -32.7573 -32.7573 -32.6261 -32.6261 -32.6133 -32.6133
    -6.8191  -6.8191  -5.8613  -5.8613  -5.1910  -5.1910  -5.0040  -5.0040
     4.8060   4.8060   4.9424   4.9424   6.1418   6.1418   6.2093   6.2093
     6.6826   6.6826   8.2715   8.2715   8.3794   8.3794   8.6501   8.6501
     9.1293   9.1293   9.9438   9.9438  10.4264  10.4264  11.3035  11.3035
    11.6568  11.6568  11.9342  11.9342  12.0492  12.0492  12.3170  12.3170
    12.6910  12.6910  14.6391  14.6391  15.5387  15.5387  17.2363  17.2363
    17.5466  17.5466  18.9029  18.9029  18.9957  18.9957

     occupation numbers 
     1.0000   1.0000   1.0000   1.0000   1.0000   1.0000   1.0000   1.0000
     1.0000   1.0000   1.0000   1.0000   1.0000   1.0000   1.0000   1.0000
     1.0000   1.0000   1.0000   1.0000   1.0000   1.0000   1.0000   1.0000
     1.0000   1.0000   1.0000   1.0000   1.0000   1.0000   1.0000   1.0000
     1.0000   1.0000   1.0000   1.0000   1.0000   1.0000   1.0000   1.0000
     1.0000   1.0000   1.0000   1.0000   1.0000   1.0000   1.0000   1.0000
     1.0000   1.0000   1.0000   1.0000   1.0000   1.0000   1.0000   1.0000
     1.0000   1.0000  -0.0000  -0.0000  -0.0000  -0.0000  -0.0000  -0.0000
    -0.0000  -0.0000  -0.0000  -0.0000  -0.0000  -0.0000

          k = 0.0000 0.2222 0.2590 (  5373 PWs)   bands (ev):

   -79.3833 -79.3833 -79.3824 -79.3824 -46.2281 -46.2281 -46.2211 -46.2211
   -32.7773 -32.7773 -32.7655 -32.7655 -32.6336 -32.6336 -32.6167 -32.6167
    -6.6201  -6.6201  -5.7431  -5.7431  -5.2799  -5.2799  -5.1104  -5.1104
     5.0472   5.0472   5.1569   5.1569   6.2779   6.2779   6.3257   6.3257
     6.9673   6.9673   7.6083   7.6083   8.1647   8.1647   8.6607   8.6607
     8.9495   8.9495   9.7586   9.7586   9.9628   9.9628  11.1959  11.1959
    11.4650  11.4650  12.2231  12.2231  12.3154  12.3154  12.6564  12.6564
    13.0441  13.0441  14.4708  14.4708  15.8442  15.8442  16.6582  16.6582
    17.0608  17.0608  18.6340  18.6340  19.6523  19.6523

     occupation numbers 
     1.0000   1.0000   1.0000   1.0000   1.0000   1.0000   1.0000   1.0000
     1.0000   1.0000   1.0000   1.0000   1.0000   1.0000   1.0000   1.0000
     1.0000   1.0000   1.0000   1.0000   1.0000   1.0000   1.0000   1.0000
     1.0000   1.0000   1.0000   1.0000   1.0000   1.0000   1.0000   1.0000
     1.0000   1.0000   1.0000   1.0000   1.0000   1.0000   1.0000   1.0000
     1.0000   1.0000   1.0000   1.0000   1.0000   1.0000   1.0000   1.0000
     1.0000   1.0000   1.0000   1.0000   1.0000   1.0000   1.0000   1.0000
     1.0000   1.0000  -0.0000  -0.0000  -0.0000  -0.0000  -0.0000  -0.0000
    -0.0000  -0.0000  -0.0000  -0.0000  -0.0000  -0.0000

          k = 0.0000 0.2222 0.3886 (  5391 PWs)   bands (ev):

   -79.3825 -79.3825 -79.3819 -79.3819 -46.2304 -46.2304 -46.2250 -46.2250
   -32.7944 -32.7944 -32.7781 -32.7781 -32.6395 -32.6395 -32.6207 -32.6207
    -6.3402  -6.3402  -5.6262  -5.6262  -5.3729  -5.3729  -5.2341  -5.2341
     5.3667   5.3667   5.4469   5.4469   6.4018   6.4018   6.5520   6.5520
     6.9707   6.9707   7.4336   7.4336   7.4974   7.4974   8.7835   8.7835
     9.1556   9.1556   9.3959   9.3959   9.5942   9.5942  10.8353  10.8353
    11.4888  11.4888  12.2261  12.2261  12.4025  12.4025  13.0087  13.0087
    13.4816  13.4816  14.2836  14.2836  15.9633  15.9633  16.1057  16.1057
    16.8245  16.8245  18.2627  18.2627  20.5515  20.5515

     occupation numbers 
     1.0000   1.0000   1.0000   1.0000   1.0000   1.0000   1.0000   1.0000
     1.0000   1.0000   1.0000   1.0000   1.0000   1.0000   1.0000   1.0000
     1.0000   1.0000   1.0000   1.0000   1.0000   1.0000   1.0000   1.0000
     1.0000   1.0000   1.0000   1.0000   1.0000   1.0000   1.0000   1.0000
     1.0000   1.0000   1.0000   1.0000   1.0000   1.0000   1.0000   1.0000
     1.0000   1.0000   1.0000   1.0000   1.0000   1.0000   1.0000   1.0000
     1.0000   1.0000   1.0000   1.0000   1.0000   1.0000   1.0000   1.0000
     1.0000   1.0000  -0.0000  -0.0000  -0.0000  -0.0000  -0.0000  -0.0000
    -0.0000  -0.0000  -0.0000  -0.0000  -0.0000  -0.0000

          k = 0.0000 0.2222 0.5181 (  5376 PWs)   bands (ev):

   -79.3818 -79.3818 -79.3814 -79.3814 -46.2324 -46.2324 -46.2288 -46.2288
   -32.8112 -32.8112 -32.7922 -32.7922 -32.6410 -32.6410 -32.6242 -32.6242
    -6.0541  -6.0541  -5.6337  -5.6337  -5.4025  -5.4025  -5.2964  -5.2964
     5.6061   5.6061   5.7573   5.7573   6.1025   6.1025   6.5774   6.5774
     7.1441   7.1441   7.2370   7.2370   7.9594   7.9594   8.5916   8.5916
     8.8888   8.8888   9.3981   9.3981   9.6111   9.6111  10.2088  10.2088
    11.7689  11.7689  12.1082  12.1082  12.2432  12.2432  13.0594  13.0594
    13.8476  13.8476  14.2643  14.2643  15.5982  15.5982  15.7765  15.7765
    17.0739  17.0739  17.9284  17.9284  21.5488  21.5488

     occupation numbers 
     1.0000   1.0000   1.0000   1.0000   1.0000   1.0000   1.0000   1.0000
     1.0000   1.0000   1.0000   1.0000   1.0000   1.0000   1.0000   1.0000
     1.0000   1.0000   1.0000   1.0000   1.0000   1.0000   1.0000   1.0000
     1.0000   1.0000   1.0000   1.0000   1.0000   1.0000   1.0000   1.0000
     1.0000   1.0000   1.0000   1.0000   1.0000   1.0000   1.0000   1.0000
     1.0000   1.0000   1.0000   1.0000   1.0000   1.0000   1.0000   1.0000
     1.0000   1.0000   1.0000   1.0000   1.0000   1.0000   1.0000   1.0000
     0.7728   0.7728  -0.0000  -0.0000  -0.0000  -0.0000  -0.0000  -0.0000
    -0.0000  -0.0000  -0.0000  -0.0000  -0.0000  -0.0000

          k = 0.0000 0.2222 0.6476 (  5374 PWs)   bands (ev):

   -79.3813 -79.3813 -79.3812 -79.3812 -46.2332 -46.2332 -46.2314 -46.2314
   -32.8215 -32.8215 -32.8016 -32.8016 -32.6401 -32.6401 -32.6266 -32.6266
    -5.8442  -5.8442  -5.7210  -5.7210  -5.4108  -5.4108  -5.2898  -5.2898
     5.6802   5.6802   5.8017   5.8017   6.0634   6.0634   6.3207   6.3207
     7.4600   7.4600   7.6255   7.6255   8.1129   8.1129   8.4220   8.4220
     8.8021   8.8021   9.3413   9.3413   9.6735   9.6735   9.7232   9.7232
    11.8543  11.8543  11.9602  11.9602  12.3288  12.3288  12.7968  12.7968
    14.0460  14.0460  14.3784  14.3784  15.4127  15.4127  15.5245  15.5245
    17.3546  17.3546  17.6820  17.6820  22.5279  22.5279

     occupation numbers 
     1.0000   1.0000   1.0000   1.0000   1.0000   1.0000   1.0000   1.0000
     1.0000   1.0000   1.0000   1.0000   1.0000   1.0000   1.0000   1.0000
     1.0000   1.0000   1.0000   1.0000   1.0000   1.0000   1.0000   1.0000
     1.0000   1.0000   1.0000   1.0000   1.0000   1.0000   1.0000   1.0000
     1.0000   1.0000   1.0000   1.0000   1.0000   1.0000   1.0000   1.0000
     1.0000   1.0000   1.0000   1.0000   1.0000   1.0000   1.0000   1.0000
     1.0000   1.0000   1.0000   1.0000   1.0000   1.0000   1.0000   1.0000
    -0.0008  -0.0008  -0.0000  -0.0000  -0.0000  -0.0000  -0.0000  -0.0000
    -0.0000  -0.0000  -0.0000  -0.0000  -0.0000  -0.0000

          k = 0.0000 0.3333 0.0000 (  5372 PWs)   bands (ev):

   -79.3839 -79.3839 -79.3832 -79.3832 -46.2240 -46.2240 -46.2187 -46.2187
   -32.7602 -32.7602 -32.7547 -32.7547 -32.6220 -32.6220 -32.6150 -32.6150
    -6.6787  -6.6787  -5.9655  -5.9655  -5.2766  -5.2766  -5.0934  -5.0934
     5.1640   5.1640   5.2433   5.2433   6.1588   6.1588   6.2168   6.2168
     6.9472   6.9472   7.7714   7.7714   7.9154   7.9154   8.6258   8.6258
     9.0218   9.0218   9.2199   9.2199  10.6178  10.6178  11.1881  11.1881
    11.8993  11.8993  12.0137  12.0137  12.2292  12.2292  12.4110  12.4110
    12.9457  12.9457  14.3185  14.3185  16.1655  16.1655  17.3612  17.3612
    17.5884  17.5884  18.4853  18.4853  19.5078  19.5078

     occupation numbers 
     1.0000   1.0000   1.0000   1.0000   1.0000   1.0000   1.0000   1.0000
     1.0000   1.0000   1.0000   1.0000   1.0000   1.0000   1.0000   1.0000
     1.0000   1.0000   1.0000   1.0000   1.0000   1.0000   1.0000   1.0000
     1.0000   1.0000   1.0000   1.0000   1.0000   1.0000   1.0000   1.0000
     1.0000   1.0000   1.0000   1.0000   1.0000   1.0000   1.0000   1.0000
     1.0000   1.0000   1.0000   1.0000   1.0000   1.0000   1.0000   1.0000
     1.0000   1.0000   1.0000   1.0000   1.0000   1.0000   1.0000   1.0000
     1.0000   1.0000  -0.0000  -0.0000  -0.0000  -0.0000  -0.0000  -0.0000
    -0.0000  -0.0000  -0.0000  -0.0000  -0.0000  -0.0000

          k = 0.0000 0.3333 0.1295 (  5381 PWs)   bands (ev):

   -79.3837 -79.3837 -79.3830 -79.3830 -46.2248 -46.2248 -46.2196 -46.2196
   -32.7654 -32.7654 -32.7561 -32.7561 -32.6257 -32.6257 -32.6160 -32.6160
    -6.6117  -6.6117  -5.9106  -5.9106  -5.3130  -5.3130  -5.1290  -5.1290
     5.2343   5.2343   5.3269   5.3269   6.1808   6.1808   6.2304   6.2304
     7.0448   7.0448   7.8621   7.8621   8.0152   8.0152   8.2970   8.2970
     8.5681   8.5681   9.3598   9.3598  10.5833  10.5833  11.1591  11.1591
    11.8627  11.8627  12.0232  12.0232  12.3825  12.3825  12.5638  12.5638
    13.0298  13.0298  14.2700  14.2700  16.2218  16.2218  17.0666  17.0666
    17.3423  17.3423  18.4554  18.4554  19.7704  19.7704

     occupation numbers 
     1.0000   1.0000   1.0000   1.0000   1.0000   1.0000   1.0000   1.0000
     1.0000   1.0000   1.0000   1.0000   1.0000   1.0000   1.0000   1.0000
     1.0000   1.0000   1.0000   1.0000   1.0000   1.0000   1.0000   1.0000
     1.0000   1.0000   1.0000   1.0000   1.0000   1.0000   1.0000   1.0000
     1.0000   1.0000   1.0000   1.0000   1.0000   1.0000   1.0000   1.0000
     1.0000   1.0000   1.0000   1.0000   1.0000   1.0000   1.0000   1.0000
     1.0000   1.0000   1.0000   1.0000   1.0000   1.0000   1.0000   1.0000
     1.0000   1.0000  -0.0000  -0.0000  -0.0000  -0.0000  -0.0000  -0.0000
    -0.0000  -0.0000  -0.0000  -0.0000  -0.0000  -0.0000

          k = 0.0000 0.3333 0.2590 (  5372 PWs)   bands (ev):

   -79.3831 -79.3831 -79.3826 -79.3826 -46.2269 -46.2269 -46.2223 -46.2223
   -32.7787 -32.7787 -32.7628 -32.7628 -32.6333 -32.6333 -32.6188 -32.6188
    -6.4284  -6.4284  -5.7653  -5.7653  -5.4087  -5.4087  -5.2182  -5.2182
     5.4189   5.4189   5.5322   5.5322   6.2816   6.2816   6.3546   6.3546
     7.1202   7.1202   7.6651   7.6651   7.7855   7.7855   8.1469   8.1469
     8.4060   8.4060   9.4224   9.4224  10.2757  10.2757  10.9530  10.9530
    11.7878  11.7878  12.2944  12.2944  12.5080  12.5080  12.7767  12.7767
    13.2623  13.2623  14.1694  14.1694  16.2260  16.2260  16.4568  16.4568
    17.0069  17.0069  18.3804  18.3804  20.3568  20.3568

     occupation numbers 
     1.0000   1.0000   1.0000   1.0000   1.0000   1.0000   1.0000   1.0000
     1.0000   1.0000   1.0000   1.0000   1.0000   1.0000   1.0000   1.0000
     1.0000   1.0000   1.0000   1.0000   1.0000   1.0000   1.0000   1.0000
     1.0000   1.0000   1.0000   1.0000   1.0000   1.0000   1.0000   1.0000
     1.0000   1.0000   1.0000   1.0000   1.0000   1.0000   1.0000   1.0000
     1.0000   1.0000   1.0000   1.0000   1.0000   1.0000   1.0000   1.0000
     1.0000   1.0000   1.0000   1.0000   1.0000   1.0000   1.0000   1.0000
     1.0000   1.0000  -0.0000  -0.0000  -0.0000  -0.0000  -0.0000  -0.0000
    -0.0000  -0.0000  -0.0000  -0.0000  -0.0000  -0.0000

          k = 0.0000 0.3333 0.3886 (  5368 PWs)   bands (ev):

   -79.3824 -79.3824 -79.3820 -79.3820 -46.2296 -46.2296 -46.2259 -46.2259
   -32.7968 -32.7968 -32.7750 -32.7750 -32.6394 -32.6394 -32.6217 -32.6217
    -6.1830  -6.1830  -5.6074  -5.6074  -5.5109  -5.5109  -5.3096  -5.3096
     5.6378   5.6378   5.7411   5.7411   6.3737   6.3737   6.5682   6.5682
     6.8676   6.8676   7.0349   7.0349   7.8788   7.8788   8.4278   8.4278
     8.7456   8.7456   9.3196   9.3196   9.8842   9.8842  10.8636  10.8636
    11.4473  11.4473  12.3627  12.3627  12.4994  12.4994  12.8597  12.8597
    13.5875  13.5875  14.1589  14.1589  15.7473  15.7473  15.9459  15.9459
    17.1839  17.1839  18.2922  18.2922  21.1025  21.1025

     occupation numbers 
     1.0000   1.0000   1.0000   1.0000   1.0000   1.0000   1.0000   1.0000
     1.0000   1.0000   1.0000   1.0000   1.0000   1.0000   1.0000   1.0000
     1.0000   1.0000   1.0000   1.0000   1.0000   1.0000   1.0000   1.0000
     1.0000   1.0000   1.0000   1.0000   1.0000   1.0000   1.0000   1.0000
     1.0000   1.0000   1.0000   1.0000   1.0000   1.0000   1.0000   1.0000
     1.0000   1.0000   1.0000   1.0000   1.0000   1.0000   1.0000   1.0000
     1.0000   1.0000   1.0000   1.0000   1.0000   1.0000   1.0000   1.0000
     1.0000   1.0000  -0.0000  -0.0000  -0.0000  -0.0000  -0.0000  -0.0000
    -0.0000  -0.0000  -0.0000  -0.0000  -0.0000  -0.0000

          k = 0.0000 0.3333 0.5181 (  5358 PWs)   bands (ev):

   -79.3818 -79.3818 -79.3815 -79.3815 -46.2320 -46.2320 -46.2293 -46.2293
   -32.8143 -32.8143 -32.7891 -32.7891 -32.6418 -32.6418 -32.6236 -32.6236
    -5.9642  -5.9642  -5.6761  -5.6761  -5.4445  -5.4445  -5.3100  -5.3100
     5.7333   5.7333   5.8388   5.8388   6.0251   6.0251   6.3631   6.3631
     7.0702   7.0702   7.4032   7.4032   8.0886   8.0886   8.7051   8.7051
     9.0005   9.0005   9.0961   9.0961   9.6336   9.6336  10.6297  10.6297
    11.3524  11.3524  12.1495  12.1495  12.2282  12.2282  12.6954  12.6954
    13.9122  13.9122  14.3142  14.3142  15.3182  15.3182  15.5298  15.5298
    17.5491  17.5491  18.2137  18.2137  21.9108  21.9108

     occupation numbers 
     1.0000   1.0000   1.0000   1.0000   1.0000   1.0000   1.0000   1.0000
     1.0000   1.0000   1.0000   1.0000   1.0000   1.0000   1.0000   1.0000
     1.0000   1.0000   1.0000   1.0000   1.0000   1.0000   1.0000   1.0000
     1.0000   1.0000   1.0000   1.0000   1.0000   1.0000   1.0000   1.0000
     1.0000   1.0000   1.0000   1.0000   1.0000   1.0000   1.0000   1.0000
     1.0000   1.0000   1.0000   1.0000   1.0000   1.0000   1.0000   1.0000
     1.0000   1.0000   1.0000   1.0000   1.0000   1.0000   1.0000   1.0000
     0.0775   0.0775  -0.0000  -0.0000  -0.0000  -0.0000  -0.0000  -0.0000
    -0.0000  -0.0000  -0.0000  -0.0000  -0.0000  -0.0000

          k = 0.0000 0.3333 0.6476 (  5365 PWs)   bands (ev):

   -79.3813 -79.3813 -79.3812 -79.3812 -46.2332 -46.2332 -46.2314 -46.2314
   -32.8250 -32.8250 -32.7984 -32.7984 -32.6421 -32.6421 -32.6246 -32.6246
    -5.8426  -5.8426  -5.7680  -5.7680  -5.3965  -5.3965  -5.2479  -5.2479
     5.5876   5.5876   5.6604   5.6604   6.0964   6.0964   6.2155   6.2155
     7.4944   7.4944   7.9564   7.9564   8.0426   8.0426   8.5670   8.5670
     9.1640   9.1640   9.2070   9.2070   9.6473   9.6473  10.0890  10.0890
    11.6062  11.6062  11.8974  11.8974  11.9593  11.9593  12.4241  12.4241
    14.1000  14.1000  14.4557  14.4557  15.1575  15.1575  15.2634  15.2634
    17.8431  17.8431  18.1217  18.1217  22.6971  22.6971

     occupation numbers 
     1.0000   1.0000   1.0000   1.0000   1.0000   1.0000   1.0000   1.0000
     1.0000   1.0000   1.0000   1.0000   1.0000   1.0000   1.0000   1.0000
     1.0000   1.0000   1.0000   1.0000   1.0000   1.0000   1.0000   1.0000
     1.0000   1.0000   1.0000   1.0000   1.0000   1.0000   1.0000   1.0000
     1.0000   1.0000   1.0000   1.0000   1.0000   1.0000   1.0000   1.0000
     1.0000   1.0000   1.0000   1.0000   1.0000   1.0000   1.0000   1.0000
     1.0000   1.0000   1.0000   1.0000   1.0000   1.0000   1.0000   1.0000
    -0.0000  -0.0000  -0.0000  -0.0000  -0.0000  -0.0000  -0.0000  -0.0000
    -0.0000  -0.0000  -0.0000  -0.0000  -0.0000  -0.0000

          k = 0.0000 0.4444 0.0000 (  5372 PWs)   bands (ev):

   -79.3837 -79.3837 -79.3834 -79.3834 -46.2223 -46.2223 -46.2204 -46.2204
   -32.7577 -32.7577 -32.7558 -32.7558 -32.6205 -32.6205 -32.6181 -32.6181
    -6.4161  -6.4161  -6.1508  -6.1508  -5.2942  -5.2942  -5.2145  -5.2145
     5.5487   5.5487   5.5883   5.5883   6.2218   6.2218   6.2403   6.2403
     7.2480   7.2480   7.3987   7.3987   7.6106   7.6106   8.2372   8.2372
     8.6910   8.6910   8.8883   8.8883  10.7346  10.7346  10.9407  10.9407
    12.0764  12.0764  12.1346  12.1346  12.4368  12.4368  12.5271  12.5271
    13.4011  13.4011  13.8710  13.8710  16.9513  16.9513  17.2770  17.2770
    17.4358  17.4358  17.8273  17.8273  20.3636  20.3636

     occupation numbers 
     1.0000   1.0000   1.0000   1.0000   1.0000   1.0000   1.0000   1.0000
     1.0000   1.0000   1.0000   1.0000   1.0000   1.0000   1.0000   1.0000
     1.0000   1.0000   1.0000   1.0000   1.0000   1.0000   1.0000   1.0000
     1.0000   1.0000   1.0000   1.0000   1.0000   1.0000   1.0000   1.0000
     1.0000   1.0000   1.0000   1.0000   1.0000   1.0000   1.0000   1.0000
     1.0000   1.0000   1.0000   1.0000   1.0000   1.0000   1.0000   1.0000
     1.0000   1.0000   1.0000   1.0000   1.0000   1.0000   1.0000   1.0000
     1.0000   1.0000   0.4996   0.4996  -0.0000  -0.0000  -0.0000  -0.0000
    -0.0000  -0.0000  -0.0000  -0.0000  -0.0000  -0.0000

          k = 0.0000 0.4444 0.1295 (  5379 PWs)   bands (ev):

   -79.3835 -79.3835 -79.3832 -79.3832 -46.2232 -46.2232 -46.2213 -46.2213
   -32.7649 -32.7649 -32.7554 -32.7554 -32.6251 -32.6251 -32.6182 -32.6182
    -6.3543  -6.3543  -6.0917  -6.0917  -5.3289  -5.3289  -5.2459  -5.2459
     5.6206   5.6206   5.7021   5.7021   6.1831   6.1831   6.2119   6.2119
     7.4019   7.4019   7.5342   7.5342   7.6216   7.6216   8.0305   8.0305
     8.4113   8.4113   8.8058   8.8058  10.7716  10.7716  10.9720  10.9720
    12.0056  12.0056  12.0548  12.0548  12.6056  12.6056  12.7223  12.7223
    13.3995  13.3995  13.8565  13.8565  16.7811  16.7811  17.0303  17.0303
    17.3002  17.3002  17.8589  17.8589  20.6079  20.6079

     occupation numbers 
     1.0000   1.0000   1.0000   1.0000   1.0000   1.0000   1.0000   1.0000
     1.0000   1.0000   1.0000   1.0000   1.0000   1.0000   1.0000   1.0000
     1.0000   1.0000   1.0000   1.0000   1.0000   1.0000   1.0000   1.0000
     1.0000   1.0000   1.0000   1.0000   1.0000   1.0000   1.0000   1.0000
     1.0000   1.0000   1.0000   1.0000   1.0000   1.0000   1.0000   1.0000
     1.0000   1.0000   1.0000   1.0000   1.0000   1.0000   1.0000   1.0000
     1.0000   1.0000   1.0000   1.0000   1.0000   1.0000   1.0000   1.0000
     1.0000   1.0000   0.6753   0.6753  -0.0000  -0.0000  -0.0000  -0.0000
    -0.0000  -0.0000  -0.0000  -0.0000  -0.0000  -0.0000

          k = 0.0000 0.4444 0.2590 (  5374 PWs)   bands (ev):

   -79.3830 -79.3830 -79.3828 -79.3828 -46.2256 -46.2256 -46.2237 -46.2237
   -32.7793 -32.7793 -32.7612 -32.7612 -32.6329 -32.6329 -32.6203 -32.6203
    -6.1892  -6.1892  -5.9365  -5.9365  -5.4167  -5.4167  -5.3213  -5.3213
     5.7973   5.7973   5.9213   5.9213   6.2169   6.2169   6.3064   6.3064
     7.1445   7.1445   7.3351   7.3351   7.8339   7.8339   7.9158   7.9158
     8.2965   8.2965   8.8730   8.8730  10.5565  10.5565  10.7693  10.7693
    12.0339  12.0339  12.1995  12.1995  12.6905  12.6905  12.9043  12.9043
    13.4450  13.4450  13.8959  13.8959  16.2219  16.2219  16.3994  16.3994
    17.3937  17.3937  17.9340  17.9340  21.1484  21.1484

     occupation numbers 
     1.0000   1.0000   1.0000   1.0000   1.0000   1.0000   1.0000   1.0000
     1.0000   1.0000   1.0000   1.0000   1.0000   1.0000   1.0000   1.0000
     1.0000   1.0000   1.0000   1.0000   1.0000   1.0000   1.0000   1.0000
     1.0000   1.0000   1.0000   1.0000   1.0000   1.0000   1.0000   1.0000
     1.0000   1.0000   1.0000   1.0000   1.0000   1.0000   1.0000   1.0000
     1.0000   1.0000   1.0000   1.0000   1.0000   1.0000   1.0000   1.0000
     1.0000   1.0000   1.0000   1.0000   1.0000   1.0000   1.0000   1.0000
     1.0000   1.0000   0.2118   0.2118  -0.0000  -0.0000  -0.0000  -0.0000
    -0.0000  -0.0000  -0.0000  -0.0000  -0.0000  -0.0000

          k = 0.0000 0.4444 0.3886 (  5379 PWs)   bands (ev):

   -79.3823 -79.3823 -79.3821 -79.3821 -46.2287 -46.2287 -46.2268 -46.2268
   -32.7981 -32.7981 -32.7734 -32.7734 -32.6392 -32.6392 -32.6224 -32.6224
    -5.9860  -5.9860  -5.7708  -5.7708  -5.4993  -5.4993  -5.3791  -5.3791
     5.9240   5.9240   5.9976   5.9976   6.4149   6.4149   6.5782   6.5782
     6.6010   6.6010   6.8048   6.8048   8.0891   8.0891   8.2672   8.2672
     8.6373   8.6373   9.0313   9.0313  10.2131  10.2131  10.5368  10.5368
    11.8068  11.8068  12.1589  12.1589  12.5842  12.5842  12.8660  12.8660
    13.6433  13.6433  14.0917  14.0917  15.6310  15.6310  15.7661  15.7661
    17.6568  17.6568  18.0737  18.0737  21.7829  21.7829

     occupation numbers 
     1.0000   1.0000   1.0000   1.0000   1.0000   1.0000   1.0000   1.0000
     1.0000   1.0000   1.0000   1.0000   1.0000   1.0000   1.0000   1.0000
     1.0000   1.0000   1.0000   1.0000   1.0000   1.0000   1.0000   1.0000
     1.0000   1.0000   1.0000   1.0000   1.0000   1.0000   1.0000   1.0000
     1.0000   1.0000   1.0000   1.0000   1.0000   1.0000   1.0000   1.0000
     1.0000   1.0000   1.0000   1.0000   1.0000   1.0000   1.0000   1.0000
     1.0000   1.0000   1.0000   1.0000   1.0000   1.0000   1.0000   1.0000
     1.0000   1.0000  -0.0000  -0.0000  -0.0000  -0.0000  -0.0000  -0.0000
    -0.0000  -0.0000  -0.0000  -0.0000  -0.0000  -0.0000

          k = 0.0000 0.4444 0.5181 (  5376 PWs)   bands (ev):

   -79.3817 -79.3817 -79.3816 -79.3816 -46.2316 -46.2316 -46.2297 -46.2297
   -32.8160 -32.8160 -32.7874 -32.7874 -32.6423 -32.6423 -32.6233 -32.6233
    -5.8582  -5.8582  -5.7549  -5.7549  -5.4663  -5.4663  -5.3206  -5.3206
     5.7901   5.7901   5.8459   5.8459   6.1110   6.1110   6.2172   6.2172
     7.0765   7.0765   7.4077   7.4077   8.2441   8.2441   8.5798   8.5798
     8.9248   8.9248   9.0629   9.0629  10.0280  10.0280  10.5529  10.5529
    11.3749  11.3749  11.8338  11.8338  12.2574  12.2574  12.5725  12.5725
    13.9481  13.9481  14.3441  14.3441  15.2217  15.2217  15.3182  15.3182
    17.9558  17.9558  18.2404  18.2404  22.4113  22.4114

     occupation numbers 
     1.0000   1.0000   1.0000   1.0000   1.0000   1.0000   1.0000   1.0000
     1.0000   1.0000   1.0000   1.0000   1.0000   1.0000   1.0000   1.0000
     1.0000   1.0000   1.0000   1.0000   1.0000   1.0000   1.0000   1.0000
     1.0000   1.0000   1.0000   1.0000   1.0000   1.0000   1.0000   1.0000
     1.0000   1.0000   1.0000   1.0000   1.0000   1.0000   1.0000   1.0000
     1.0000   1.0000   1.0000   1.0000   1.0000   1.0000   1.0000   1.0000
     1.0000   1.0000   1.0000   1.0000   1.0000   1.0000   1.0000   1.0000
    -0.0340  -0.0340  -0.0000  -0.0000  -0.0000  -0.0000  -0.0000  -0.0000
    -0.0000  -0.0000  -0.0000  -0.0000  -0.0000  -0.0000

          k = 0.0000 0.4444 0.6476 (  5367 PWs)   bands (ev):

   -79.3813 -79.3813 -79.3813 -79.3813 -46.2333 -46.2333 -46.2314 -46.2314
   -32.8269 -32.8269 -32.7966 -32.7966 -32.6432 -32.6432 -32.6235 -32.6235
    -5.8313  -5.8313  -5.8064  -5.8064  -5.3851  -5.3851  -5.2251  -5.2251
     5.4982   5.4982   5.5464   5.5464   6.1835   6.1835   6.2136   6.2136
     7.4799   7.4799   7.9652   7.9652   8.3486   8.3486   8.6678   8.6678
     8.8832   8.8832   9.0342   9.0342  10.2273  10.2273  10.6053  10.6053
    11.1030  11.1030  11.4161  11.4161  11.9501  11.9501  12.2862  12.2862
    14.1338  14.1338  14.4867  14.4867  15.0510  15.0510  15.1058  15.1058
    18.1600  18.1600  18.3477  18.3477  22.9520  22.9523

     occupation numbers 
     1.0000   1.0000   1.0000   1.0000   1.0000   1.0000   1.0000   1.0000
     1.0000   1.0000   1.0000   1.0000   1.0000   1.0000   1.0000   1.0000
     1.0000   1.0000   1.0000   1.0000   1.0000   1.0000   1.0000   1.0000
     1.0000   1.0000   1.0000   1.0000   1.0000   1.0000   1.0000   1.0000
     1.0000   1.0000   1.0000   1.0000   1.0000   1.0000   1.0000   1.0000
     1.0000   1.0000   1.0000   1.0000   1.0000   1.0000   1.0000   1.0000
     1.0000   1.0000   1.0000   1.0000   1.0000   1.0000   1.0000   1.0000
    -0.0000  -0.0000  -0.0000  -0.0000  -0.0000  -0.0000  -0.0000  -0.0000
    -0.0000  -0.0000  -0.0000  -0.0000  -0.0000  -0.0000

          k = 0.1111 0.1111 0.0000 (  5365 PWs)   bands (ev):

   -79.3841 -79.3841 -79.3830 -79.3830 -46.2261 -46.2261 -46.2166 -46.2166
   -32.7641 -32.7641 -32.7542 -32.7542 -32.6226 -32.6226 -32.6103 -32.6103
    -6.9837  -6.9837  -5.9072  -5.9072  -5.0949  -5.0949  -4.8718  -4.8718
     4.3744   4.3744   4.8133   4.8133   6.0568   6.0568   6.1727   6.1727
     6.4117   6.4117   8.3947   8.3947   8.7056   8.7056   9.0555   9.0555
     9.9717   9.9717  10.4740  10.4740  10.6051  10.6051  11.1467  11.1467
    11.5181  11.5181  11.5636  11.5636  11.8321  11.8321  11.9560  11.9560
    12.3807  12.3807  14.8984  14.8984  14.9852  14.9852  17.5734  17.5734
    17.9527  17.9527  18.3439  18.3439  19.2214  19.2214

     occupation numbers 
     1.0000   1.0000   1.0000   1.0000   1.0000   1.0000   1.0000   1.0000
     1.0000   1.0000   1.0000   1.0000   1.0000   1.0000   1.0000   1.0000
     1.0000   1.0000   1.0000   1.0000   1.0000   1.0000   1.0000   1.0000
     1.0000   1.0000   1.0000   1.0000   1.0000   1.0000   1.0000   1.0000
     1.0000   1.0000   1.0000   1.0000   1.0000   1.0000   1.0000   1.0000
     1.0000   1.0000   1.0000   1.0000   1.0000   1.0000   1.0000   1.0000
[...]
     1.0000   1.0000   1.0000   1.0000   1.0000   1.0000   1.0000   1.0000
     1.0000   1.0000   0.6066   0.6066  -0.0000  -0.0000  -0.0000  -0.0000
    -0.0000  -0.0000  -0.0000  -0.0000  -0.0000  -0.0000

          k = 0.3333 0.4444 0.6476 (  5363 PWs)   bands (ev):

   -79.3813 -79.3813 -79.3813 -79.3813 -46.2328 -46.2328 -46.2318 -46.2318
   -32.8197 -32.8197 -32.8038 -32.8038 -32.6389 -32.6389 -32.6286 -32.6286
    -5.7375  -5.7375  -5.6692  -5.6692  -5.4802  -5.4802  -5.3470  -5.3470
     5.6217   5.6217   5.7676   5.7676   6.0052   6.0052   6.2395   6.2395
     6.8152   6.8152   7.2387   7.2387   8.2311   8.2311   8.3520   8.3520
     9.4740   9.4740   9.6141   9.6141  10.4000  10.4000  10.6911  10.6911
    11.7538  11.7538  11.9349  11.9349  12.1253  12.1253  12.5613  12.5613
    13.5331  13.5331  13.9937  13.9937  15.5008  15.5008  15.8762  15.8762
    17.2888  17.2888  17.6851  17.6851  22.9997  23.0000

     occupation numbers 
     1.0000   1.0000   1.0000   1.0000   1.0000   1.0000   1.0000   1.0000
     1.0000   1.0000   1.0000   1.0000   1.0000   1.0000   1.0000   1.0000
     1.0000   1.0000   1.0000   1.0000   1.0000   1.0000   1.0000   1.0000
     1.0000   1.0000   1.0000   1.0000   1.0000   1.0000   1.0000   1.0000
     1.0000   1.0000   1.0000   1.0000   1.0000   1.0000   1.0000   1.0000
     1.0000   1.0000   1.0000   1.0000   1.0000   1.0000   1.0000   1.0000
     1.0000   1.0000   1.0000   1.0000   1.0000   1.0000   1.0000   1.0000
     1.0000   1.0000  -0.0143  -0.0143  -0.0000  -0.0000  -0.0000  -0.0000
    -0.0000  -0.0000  -0.0000  -0.0000  -0.0000  -0.0000

          k = 0.4444 0.4444 0.0000 (  5408 PWs)   bands (ev):

   -79.3836 -79.3836 -79.3835 -79.3835 -46.2216 -46.2216 -46.2212 -46.2212
   -32.7595 -32.7595 -32.7590 -32.7590 -32.6175 -32.6175 -32.6169 -32.6169
    -6.4258  -6.4258  -6.3829  -6.3829  -5.0640  -5.0640  -5.0310  -5.0310
     4.4008   4.4008   4.5009   4.5009   6.0144   6.0144   6.0310   6.0310
     8.3462   8.3462   8.7001   8.7001   8.7619   8.7619   9.1207   9.1207
     9.4950   9.4950   9.5985   9.5985  10.0875  10.0875  10.3975  10.3975
    11.1368  11.1368  11.3357  11.3357  11.7620  11.7620  11.8609  11.8609
    13.9980  13.9980  14.0715  14.0715  16.2054  16.2054  16.3799  16.3799
    17.8674  17.8674  17.9303  17.9303  22.0621  22.0621

     occupation numbers 
     1.0000   1.0000   1.0000   1.0000   1.0000   1.0000   1.0000   1.0000
     1.0000   1.0000   1.0000   1.0000   1.0000   1.0000   1.0000   1.0000
     1.0000   1.0000   1.0000   1.0000   1.0000   1.0000   1.0000   1.0000
     1.0000   1.0000   1.0000   1.0000   1.0000   1.0000   1.0000   1.0000
     1.0000   1.0000   1.0000   1.0000   1.0000   1.0000   1.0000   1.0000
     1.0000   1.0000   1.0000   1.0000   1.0000   1.0000   1.0000   1.0000
     1.0000   1.0000   1.0000   1.0000   1.0000   1.0000   1.0000   1.0000
    -0.0120  -0.0120  -0.0001  -0.0001  -0.0000  -0.0000  -0.0000  -0.0000
    -0.0000  -0.0000  -0.0000  -0.0000  -0.0000  -0.0000

          k = 0.4444 0.4444 0.1295 (  5396 PWs)   bands (ev):

   -79.3834 -79.3834 -79.3833 -79.3833 -46.2224 -46.2224 -46.2221 -46.2221
   -32.7635 -32.7635 -32.7613 -32.7613 -32.6205 -32.6205 -32.6189 -32.6189
    -6.3650  -6.3650  -6.3228  -6.3228  -5.1023  -5.1023  -5.0699  -5.0699
     4.4892   4.4892   4.5880   4.5880   6.0140   6.0140   6.0320   6.0320
     8.4337   8.4337   8.7294   8.7294   8.8416   8.8416   9.1092   9.1092
     9.2004   9.2004   9.3475   9.3475   9.8881   9.8881  10.1020  10.1020
    11.3871  11.3871  11.5553  11.5553  11.9815  11.9815  12.0554  12.0554
    13.9128  13.9128  13.9835  13.9835  16.3199  16.3199  16.4793  16.4793
    17.6638  17.6638  17.7318  17.7318  22.1813  22.1814

     occupation numbers 
     1.0000   1.0000   1.0000   1.0000   1.0000   1.0000   1.0000   1.0000
     1.0000   1.0000   1.0000   1.0000   1.0000   1.0000   1.0000   1.0000
     1.0000   1.0000   1.0000   1.0000   1.0000   1.0000   1.0000   1.0000
     1.0000   1.0000   1.0000   1.0000   1.0000   1.0000   1.0000   1.0000
     1.0000   1.0000   1.0000   1.0000   1.0000   1.0000   1.0000   1.0000
     1.0000   1.0000   1.0000   1.0000   1.0000   1.0000   1.0000   1.0000
     1.0000   1.0000   1.0000   1.0000   1.0000   1.0000   1.0000   1.0000
     0.0736   0.0736  -0.0206  -0.0206  -0.0000  -0.0000  -0.0000  -0.0000
    -0.0000  -0.0000  -0.0000  -0.0000  -0.0000  -0.0000

          k = 0.4444 0.4444 0.2590 (  5386 PWs)   bands (ev):

   -79.3829 -79.3829 -79.3828 -79.3828 -46.2248 -46.2248 -46.2245 -46.2245
   -32.7742 -32.7742 -32.7698 -32.7698 -32.6268 -32.6268 -32.6238 -32.6238
    -6.1991  -6.1991  -6.1597  -6.1597  -5.2030  -5.2030  -5.1720  -5.1720
     4.7385   4.7385   4.8311   4.8311   6.0314   6.0314   6.0540   6.0540
     8.2514   8.2514   8.4029   8.4029   8.6721   8.6721   8.9587   8.9587
     9.2748   9.2748   9.4044   9.4044   9.5420   9.5420   9.7575   9.7575
    11.7372  11.7372  11.8762  11.8762  12.3738  12.3738  12.4306  12.4306
    13.6831  13.6831  13.7508  13.7508  16.5326  16.5326  16.6593  16.6593
    17.2410  17.2410  17.3258  17.3258  22.4160  22.4161

     occupation numbers 
     1.0000   1.0000   1.0000   1.0000   1.0000   1.0000   1.0000   1.0000
     1.0000   1.0000   1.0000   1.0000   1.0000   1.0000   1.0000   1.0000
     1.0000   1.0000   1.0000   1.0000   1.0000   1.0000   1.0000   1.0000
     1.0000   1.0000   1.0000   1.0000   1.0000   1.0000   1.0000   1.0000
     1.0000   1.0000   1.0000   1.0000   1.0000   1.0000   1.0000   1.0000
     1.0000   1.0000   1.0000   1.0000   1.0000   1.0000   1.0000   1.0000
     1.0000   1.0000   1.0000   1.0000   1.0000   1.0000   1.0000   1.0000
     1.0003   1.0003   1.0158   1.0158  -0.0000  -0.0000  -0.0000  -0.0000
    -0.0000  -0.0000  -0.0000  -0.0000  -0.0000  -0.0000

          k = 0.4444 0.4444 0.3886 (  5373 PWs)   bands (ev):

   -79.3822 -79.3822 -79.3822 -79.3822 -46.2280 -46.2280 -46.2276 -46.2276
   -32.7897 -32.7897 -32.7837 -32.7837 -32.6323 -32.6323 -32.6282 -32.6282
    -5.9756  -5.9756  -5.9434  -5.9434  -5.3297  -5.3297  -5.2990  -5.2990
     5.0963   5.0963   5.1707   5.1707   6.0867   6.0867   6.1175   6.1175
     7.5453   7.5453   7.6534   7.6534   8.7393   8.7393   8.8711   8.8711
     9.1933   9.1933   9.2864   9.2864   9.8798   9.8798  10.0606  10.0606
    11.9328  11.9328  12.0256  12.0256  12.6457  12.6457  12.7966  12.7966
    13.3705  13.3705  13.5283  13.5283  16.4032  16.4032  16.5646  16.5646
    17.0414  17.0414  17.1970  17.1970  22.6602  22.6604

     occupation numbers 
     1.0000   1.0000   1.0000   1.0000   1.0000   1.0000   1.0000   1.0000
     1.0000   1.0000   1.0000   1.0000   1.0000   1.0000   1.0000   1.0000
     1.0000   1.0000   1.0000   1.0000   1.0000   1.0000   1.0000   1.0000
     1.0000   1.0000   1.0000   1.0000   1.0000   1.0000   1.0000   1.0000
     1.0000   1.0000   1.0000   1.0000   1.0000   1.0000   1.0000   1.0000
     1.0000   1.0000   1.0000   1.0000   1.0000   1.0000   1.0000   1.0000
     1.0000   1.0000   1.0000   1.0000   1.0000   1.0000   1.0000   1.0000
     1.0000   1.0000   1.0000   1.0000  -0.0000  -0.0000  -0.0000  -0.0000
    -0.0000  -0.0000  -0.0000  -0.0000  -0.0000  -0.0000

          k = 0.4444 0.4444 0.5181 (  5344 PWs)   bands (ev):

   -79.3816 -79.3816 -79.3816 -79.3816 -46.2309 -46.2309 -46.2304 -46.2304
   -32.8055 -32.8055 -32.7985 -32.7985 -32.6353 -32.6353 -32.6306 -32.6306
    -5.7684  -5.7684  -5.7489  -5.7489  -5.4401  -5.4401  -5.3973  -5.3973
     5.4662   5.4662   5.5004   5.5004   6.1378   6.1378   6.2104   6.2104
     6.9941   6.9941   7.0923   7.0923   8.4705   8.4705   8.5238   8.5238
     9.4013   9.4013   9.4783   9.4783  10.3109  10.3109  10.4411  10.4411
    11.9670  11.9670  12.0071  12.0071  12.5790  12.5790  12.8998  12.8998
    13.2313  13.2313  13.5556  13.5556  16.0672  16.0672  16.2642  16.2642
    17.0575  17.0575  17.2530  17.2530  22.8847  22.8848

     occupation numbers 
     1.0000   1.0000   1.0000   1.0000   1.0000   1.0000   1.0000   1.0000
     1.0000   1.0000   1.0000   1.0000   1.0000   1.0000   1.0000   1.0000
     1.0000   1.0000   1.0000   1.0000   1.0000   1.0000   1.0000   1.0000
     1.0000   1.0000   1.0000   1.0000   1.0000   1.0000   1.0000   1.0000
     1.0000   1.0000   1.0000   1.0000   1.0000   1.0000   1.0000   1.0000
     1.0000   1.0000   1.0000   1.0000   1.0000   1.0000   1.0000   1.0000
     1.0000   1.0000   1.0000   1.0000   1.0000   1.0000   1.0000   1.0000
     1.0000   1.0000   1.0000   1.0000  -0.0000  -0.0000  -0.0000  -0.0000
    -0.0000  -0.0000  -0.0000  -0.0000  -0.0000  -0.0000

          k = 0.4444 0.4444 0.6476 (  5367 PWs)   bands (ev):

   -79.3813 -79.3813 -79.3813 -79.3813 -46.2326 -46.2326 -46.2321 -46.2321
   -32.8154 -32.8154 -32.8080 -32.8080 -32.6363 -32.6363 -32.6314 -32.6314
    -5.6788  -5.6788  -5.6293  -5.6293  -5.5022  -5.5022  -5.4195  -5.4195
     5.6752   5.6752   5.7415   5.7415   6.0977   6.0977   6.3003   6.3003
     6.6626   6.6626   6.9013   6.9013   8.2603   8.2603   8.3209   8.3209
     9.5911   9.5911   9.6416   9.6416  10.5643  10.5643  10.6677  10.6677
    11.9193  11.9193  11.9485  11.9485  12.4072  12.4072  12.7136  12.7136
    13.3629  13.3629  13.6646  13.6646  15.8688  15.8688  16.0971  16.0971
    17.0363  17.0363  17.2725  17.2725  23.0338  23.0339

     occupation numbers 
     1.0000   1.0000   1.0000   1.0000   1.0000   1.0000   1.0000   1.0000
     1.0000   1.0000   1.0000   1.0000   1.0000   1.0000   1.0000   1.0000
     1.0000   1.0000   1.0000   1.0000   1.0000   1.0000   1.0000   1.0000
     1.0000   1.0000   1.0000   1.0000   1.0000   1.0000   1.0000   1.0000
     1.0000   1.0000   1.0000   1.0000   1.0000   1.0000   1.0000   1.0000
     1.0000   1.0000   1.0000   1.0000   1.0000   1.0000   1.0000   1.0000
     1.0000   1.0000   1.0000   1.0000   1.0000   1.0000   1.0000   1.0000
     1.0000   1.0000   1.0001   1.0001  -0.0000  -0.0000  -0.0000  -0.0000
    -0.0000  -0.0000  -0.0000  -0.0000  -0.0000  -0.0000

     the Fermi energy is    13.8710 ev

!    total energy              =    -553.08008083 Ry
     estimated scf accuracy    <          2.4E-11 Ry
     smearing contrib. (-TS)   =      -0.00010789 Ry
     internal energy E=F+TS    =    -553.07997295 Ry

     The total energy is F=E-TS. E is the sum of the following terms:
     one-electron contribution =    -190.91120623 Ry
     hartree contribution      =     122.73212997 Ry
     xc contribution           =     -69.91488616 Ry
     ewald contribution        =    -414.98601052 Ry

     convergence has been achieved in  10 iterations

     Forces acting on atoms (cartesian axes, Ry/au):

     atom    1 type  2   force =     0.00000000    0.00000000    0.00000000
     atom    2 type  2   force =     0.00000000    0.00000000    0.00000000
     atom    3 type  1   force =     0.00075758   -0.00075758    0.00000000
     atom    4 type  1   force =    -0.00075758   -0.00075758    0.00000000
     atom    5 type  1   force =     0.00075758    0.00075758    0.00000000
     atom    6 type  1   force =    -0.00075758    0.00075758    0.00000000
     The non-local contrib.  to forces
     atom    1 type  2   force =     0.00000000    0.00000000    0.00000000
     atom    2 type  2   force =     0.00000000    0.00000000    0.00000000
     atom    3 type  1   force =    -0.05379676    0.05379676   -0.00000000
     atom    4 type  1   force =     0.05379676    0.05379676    0.00000000
     atom    5 type  1   force =    -0.05379676   -0.05379676    0.00000000
     atom    6 type  1   force =     0.05379676   -0.05379676   -0.00000000
     The ionic contribution  to forces
     atom    1 type  2   force =    -0.00000000   -0.00000000    0.00000000
     atom    2 type  2   force =     0.00000000    0.00000000   -0.00000000
     atom    3 type  1   force =     1.42937233   -1.42937233    0.00000000
     atom    4 type  1   force =    -1.42937233   -1.42937233   -0.00000000
     atom    5 type  1   force =     1.42937233    1.42937233   -0.00000000
     atom    6 type  1   force =    -1.42937233    1.42937233    0.00000000
     The local contribution  to forces
     atom    1 type  2   force =     0.00000000    0.00000000   -0.00000000
     atom    2 type  2   force =     0.00000000    0.00000000    0.00000000
     atom    3 type  1   force =    -1.37481758    1.37481758    0.00000000
     atom    4 type  1   force =     1.37481758    1.37481758    0.00000000
     atom    5 type  1   force =    -1.37481758   -1.37481758    0.00000000
     atom    6 type  1   force =     1.37481758   -1.37481758    0.00000000
     The core correction contribution to forces
     atom    1 type  2   force =     0.00000000    0.00000000    0.00000000
     atom    2 type  2   force =     0.00000000    0.00000000    0.00000000
     atom    3 type  1   force =     0.00000000    0.00000000    0.00000000
     atom    4 type  1   force =     0.00000000    0.00000000    0.00000000
     atom    5 type  1   force =     0.00000000    0.00000000    0.00000000
     atom    6 type  1   force =     0.00000000    0.00000000    0.00000000
     The Hubbard contrib.    to forces
     atom    1 type  2   force =     0.00000000    0.00000000    0.00000000
     atom    2 type  2   force =     0.00000000    0.00000000    0.00000000
     atom    3 type  1   force =     0.00000000    0.00000000    0.00000000
     atom    4 type  1   force =     0.00000000    0.00000000    0.00000000
     atom    5 type  1   force =     0.00000000    0.00000000    0.00000000
     atom    6 type  1   force =     0.00000000    0.00000000    0.00000000
     The SCF correction term to forces
     atom    1 type  2   force =     0.00000000   -0.00000000    0.00000000
     atom    2 type  2   force =     0.00000000   -0.00000000   -0.00000000
     atom    3 type  1   force =    -0.00000040    0.00000040    0.00000000
     atom    4 type  1   force =     0.00000040    0.00000040   -0.00000000
     atom    5 type  1   force =    -0.00000040   -0.00000040   -0.00000000
     atom    6 type  1   force =     0.00000040   -0.00000040    0.00000000

     Total force =     0.002143     Total SCF correction =     0.000001


     Computing stress (Cartesian axis) and pressure

          total   stress  (Ry/bohr**3)                   (kbar)     P=      -20.37
  -0.00011924   0.00000000   0.00000000          -17.54        0.00        0.00
   0.00000000  -0.00011924   0.00000000            0.00      -17.54        0.00
   0.00000000   0.00000000  -0.00017690            0.00        0.00      -26.02

     kinetic stress (kbar)  48454.06      0.00      0.00
                                0.00  48454.06      0.00
                                0.00      0.00  47527.80

     local   stress (kbar) -12684.76     -0.00      0.00
                               -0.00 -12684.76      0.00
                                0.00      0.00 -44403.97

     nonloc. stress (kbar)  14527.15      0.00      0.00
                                0.00  14527.15      0.00
                                0.00      0.00  14741.44

     hartree stress (kbar)   9610.44      0.00     -0.00
                                0.00   9610.44     -0.00
                               -0.00     -0.00  21379.65

     exc-cor stress (kbar)  -7288.22     -0.00      0.00
                               -0.00  -7288.22     -0.00
                                0.00     -0.00  -7263.49

     corecor stress (kbar)      0.00      0.00      0.00
                                0.00      0.00      0.00
                                0.00      0.00      0.00

     ewald   stress (kbar) -52636.21     -0.00     -0.00
                               -0.00 -52636.21     -0.00
                               -0.00     -0.00 -32007.45

     hubbard stress (kbar)      0.00      0.00      0.00
                                0.00      0.00      0.00
                                0.00      0.00      0.00

     DFT-D   stress (kbar)      0.00      0.00      0.00
                                0.00      0.00      0.00
                                0.00      0.00      0.00

     XDM     stress (kbar)      0.00      0.00      0.00
                                0.00      0.00      0.00
                                0.00      0.00      0.00

     dft-nl  stress (kbar)      0.00      0.00      0.00
                                0.00      0.00      0.00
                                0.00      0.00      0.00

     TS-vdW  stress (kbar)      0.00      0.00      0.00
                                0.00      0.00      0.00
                                0.00      0.00      0.00


                                0.00      0.00      0.00
                                0.00      0.00      0.00


                                0.00      0.00      0.00


     Writing all to output data dir tmp/espresso.save/
 
     init_run     :      8.98s CPU      4.65s WALL (       1 calls)
     electrons    :    303.20s CPU    155.28s WALL (       1 calls)
     forces       :     16.35s CPU      8.37s WALL (       1 calls)
     stress       :     23.44s CPU     11.85s WALL (       1 calls)

     Called by init_run:
     wfcinit      :      8.92s CPU      4.59s WALL (       1 calls)
     wfcinit:atom :      0.03s CPU      0.02s WALL (      90 calls)
     wfcinit:wfcr :      8.68s CPU      4.46s WALL (      90 calls)
     potinit      :      0.02s CPU      0.01s WALL (       1 calls)
     hinit0       :      0.03s CPU      0.03s WALL (       1 calls)

     Called by electrons:
     c_bands      :    277.60s CPU    142.12s WALL (      10 calls)
     sum_band     :     25.43s CPU     13.04s WALL (      10 calls)
     v_of_rho     :      0.05s CPU      0.03s WALL (      11 calls)
     v_h          :      0.01s CPU      0.00s WALL (      11 calls)
     v_xc         :      0.04s CPU      0.02s WALL (      11 calls)
     mix_rho      :      0.05s CPU      0.02s WALL (      10 calls)

     Called by c_bands:
     init_us_2    :      0.81s CPU      0.43s WALL (    2070 calls)
     init_us_2:cp :      0.79s CPU      0.43s WALL (    2070 calls)
     cegterg      :    255.69s CPU    130.95s WALL (     900 calls)

     Called by sum_band:
     sum_band:wei :      0.15s CPU      0.07s WALL (      10 calls)
     sum_band:loo :     25.26s CPU     12.95s WALL (      10 calls)
     sum_band:buf :      0.14s CPU      0.07s WALL (     900 calls)
     sum_band:ini :      0.26s CPU      0.13s WALL (     900 calls)

     Called by *egterg:
     cdiaghg      :     36.24s CPU     18.43s WALL (    2919 calls)
     cegterg:over :     15.52s CPU      7.89s WALL (    2019 calls)
     cegterg:upda :     12.46s CPU      6.34s WALL (    2019 calls)
     cegterg:last :     22.09s CPU     11.22s WALL (    1800 calls)
     cdiaghg:chol :      1.69s CPU      0.86s WALL (    2919 calls)
     cdiaghg:inve :      0.26s CPU      0.13s WALL (    2919 calls)
     cdiaghg:para :      3.74s CPU      1.91s WALL (    5838 calls)
     h_psi        :    171.54s CPU     88.22s WALL (    3009 calls)
     g_psi        :      0.25s CPU      0.13s WALL (    2019 calls)

     Called by h_psi:
     h_psi:calbec :     20.71s CPU     10.84s WALL (    3009 calls)
     vloc_psi     :    120.50s CPU     61.95s WALL (    3009 calls)
     add_vuspsi   :     29.95s CPU     15.23s WALL (    3009 calls)

     General routines
     calbec       :     26.14s CPU     13.65s WALL (    3459 calls)
     fft          :      0.05s CPU      0.03s WALL (     150 calls)
     ffts         :      0.01s CPU      0.01s WALL (      40 calls)
     fftw         :    136.52s CPU     70.17s WALL (  771836 calls)
 
     Parallel routines
 
     PWSCF        :   6m 2.62s CPU   3m10.57s WALL

 
   This run was terminated on:  12:10:17  10Apr2022            

=------------------------------------------------------------------------------=
   JOB DONE.
=------------------------------------------------------------------------------=
