
     Program PWSCF v.7.0 starts on 10Apr2022 at 11:24:52 

     This program is part of the open-source Quantum ESPRESSO suite
     for quantum simulation of materials; please cite
         "P. Giannozzi et al., J. Phys.:Condens. Matter 21 395502 (2009);
         "P. Giannozzi et al., J. Phys.:Condens. Matter 29 465901 (2017);
         "P. Giannozzi et al., J. Chem. Phys. 152 154105 (2020);
          URL http://www.quantum-espresso.org", 
     in publications or presentations arising from this work. More details at
     http://www.quantum-espresso.org/quote

     Parallel version (MPI & OpenMP), running on      64 processor cores
     Number of MPI processes:                32
     Threads/MPI process:                     2

     MPI processes distributed on     1 nodes
     R & G space division:  proc/nbgrp/npool/nimage =      32
     230418 MiB available memory on the printing compute node when the environment starts
 
     Reading input from kpoints_10109.pwi
Warning: card &CELL ignored
Warning: card / ignored

     Current dimensions of program PWSCF are:
     Max number of different atomic species (ntypx) = 10
     Max number of k-points (npk) =  40000
     Max angular momentum in pseudopotentials (lmaxx) =  4

     Subspace diagonalization in iterative solution of the eigenvalue problem:
     one sub-group per band group will be used
     scalapack distributed-memory algorithm (size of sub-group:  5*  5 procs)

 
     Parallelization info
     --------------------
     sticks:   dense  smooth     PW     G-vecs:    dense   smooth      PW
     Min          58      58     17                 1342     1342     210
     Max          59      59     19                 1345     1345     212
     Sum        1885    1885    553                42999    42999    6747
 
     Using Slab Decomposition
 

     Title: 
     IrO2 Unit Cell                                                             


     bravais-lattice index     =            6
     lattice parameter (alat)  =       8.5888  a.u.
     unit-cell volume          =     444.6868 (a.u.)^3
     number of atoms/cell      =            6
     number of atomic types    =            2
     number of electrons       =        58.00
     number of Kohn-Sham states=           70
     kinetic-energy cutoff     =      80.0000  Ry
     charge density cutoff     =     320.0000  Ry
     scf convergence threshold =      1.0E-09
     mixing beta               =       0.7000
     number of iterations used =            8  plain     mixing
     Exchange-correlation= PBE
                           (   1   4   3   4   0   0   0)
     Non magnetic calculation with spin-orbit


     celldm(1)=   8.588800  celldm(2)=   0.000000  celldm(3)=   0.701870
     celldm(4)=   0.000000  celldm(5)=   0.000000  celldm(6)=   0.000000

     crystal axes: (cart. coord. in units of alat)
               a(1) = (   1.000000   0.000000   0.000000 )  
               a(2) = (   0.000000   1.000000   0.000000 )  
               a(3) = (   0.000000   0.000000   0.701870 )  

     reciprocal axes: (cart. coord. in units 2 pi/alat)
               b(1) = (  1.000000  0.000000  0.000000 )  
               b(2) = (  0.000000  1.000000  0.000000 )  
               b(3) = (  0.000000  0.000000  1.424765 )  


     PseudoPot. # 1 for O  read from file:
     ../../XX_PSEUDO/O_ONCV_PBE_fr.upf
     MD5 check sum: 59c925217d3b58c6d762355590b68b09
     Pseudo is Norm-conserving, Zval =  6.0
     Generated using ONCVPSP code by D. R. Hamann
     Using radial grid of  936 points,  6 beta functions with: 
                l(1) =   0
                l(2) =   0
                l(3) =   1
                l(4) =   1
                l(5) =   1
                l(6) =   1

     PseudoPot. # 2 for Ir read from file:
     ../../XX_PSEUDO/Ir_ONCV_PBE_fr.upf
     MD5 check sum: 924e909c4146afa09f62ee3401806954
     Pseudo is Norm-conserving, Zval = 17.0
     Generated using ONCVPSP code by D. R. Hamann
     Using radial grid of 1310 points, 14 beta functions with: 
                l(1) =   0
                l(2) =   0
                l(3) =   1
                l(4) =   1
                l(5) =   1
                l(6) =   1
                l(7) =   2
                l(8) =   2
                l(9) =   2
               l(10) =   2
               l(11) =   3
               l(12) =   3
               l(13) =   3
               l(14) =   3

     atomic species   valence    mass     pseudopotential
        O              6.00    15.99900     O ( 1.00)
        Ir            17.00   192.21700     Ir( 1.00)

     16 Sym. Ops., with inversion, found ( 8 have fractional translation)


                                    s                        frac. trans.

      isym =  1     identity                                     

 cryst.   s( 1) = (     1          0          0      )
                  (     0          1          0      )
                  (     0          0          1      )

 cart.    s( 1) = (  1.0000000  0.0000000  0.0000000 )
                  (  0.0000000  1.0000000  0.0000000 )
                  (  0.0000000  0.0000000  1.0000000 )


      isym =  2     180 deg rotation - cart. axis [0,0,1]        

 cryst.   s( 2) = (    -1          0          0      )
                  (     0         -1          0      )
                  (     0          0          1      )

 cart.    s( 2) = ( -1.0000000  0.0000000  0.0000000 )
                  (  0.0000000 -1.0000000  0.0000000 )
                  (  0.0000000  0.0000000  1.0000000 )


      isym =  3     180 deg rotation - cart. axis [0,1,0]        

 cryst.   s( 3) = (    -1          0          0      )    f =(  0.5000000 )
                  (     0          1          0      )       ( -0.5000000 )
                  (     0          0         -1      )       (  0.5000000 )

 cart.    s( 3) = ( -1.0000000  0.0000000  0.0000000 )    f =(  0.5000000 )
                  (  0.0000000  1.0000000  0.0000000 )       ( -0.5000000 )
                  (  0.0000000  0.0000000 -1.0000000 )       (  0.3509351 )


      isym =  4     180 deg rotation - cart. axis [1,0,0]        

 cryst.   s( 4) = (     1          0          0      )    f =( -0.5000000 )
                  (     0         -1          0      )       (  0.5000000 )
                  (     0          0         -1      )       (  0.5000000 )

 cart.    s( 4) = (  1.0000000  0.0000000  0.0000000 )    f =( -0.5000000 )
                  (  0.0000000 -1.0000000  0.0000000 )       (  0.5000000 )
                  (  0.0000000  0.0000000 -1.0000000 )       (  0.3509351 )


      isym =  5     180 deg rotation - cart. axis [1,1,0]        

 cryst.   s( 5) = (     0          1          0      )
                  (     1          0          0      )
                  (     0          0         -1      )

 cart.    s( 5) = (  0.0000000  1.0000000  0.0000000 )
                  (  1.0000000  0.0000000  0.0000000 )
                  (  0.0000000  0.0000000 -1.0000000 )


      isym =  6     180 deg rotation - cart. axis [1,-1,0]       

 cryst.   s( 6) = (     0         -1          0      )
                  (    -1          0          0      )
                  (     0          0         -1      )

 cart.    s( 6) = (  0.0000000 -1.0000000  0.0000000 )
                  ( -1.0000000  0.0000000  0.0000000 )
                  (  0.0000000  0.0000000 -1.0000000 )


      isym =  7      90 deg rotation - cart. axis [0,0,-1]       

 cryst.   s( 7) = (     0         -1          0      )    f =( -0.5000000 )
                  (     1          0          0      )       (  0.5000000 )
                  (     0          0          1      )       ( -0.5000000 )

 cart.    s( 7) = (  0.0000000  1.0000000  0.0000000 )    f =( -0.5000000 )
                  ( -1.0000000  0.0000000  0.0000000 )       (  0.5000000 )
                  (  0.0000000  0.0000000  1.0000000 )       ( -0.3509351 )


      isym =  8      90 deg rotation - cart. axis [0,0,1]        

 cryst.   s( 8) = (     0          1          0      )    f =(  0.5000000 )
                  (    -1          0          0      )       ( -0.5000000 )
                  (     0          0          1      )       ( -0.5000000 )

 cart.    s( 8) = (  0.0000000 -1.0000000  0.0000000 )    f =(  0.5000000 )
                  (  1.0000000  0.0000000  0.0000000 )       ( -0.5000000 )
                  (  0.0000000  0.0000000  1.0000000 )       ( -0.3509351 )


      isym =  9     inversion                                    

 cryst.   s( 9) = (    -1          0          0      )
                  (     0         -1          0      )
                  (     0          0         -1      )

 cart.    s( 9) = ( -1.0000000  0.0000000  0.0000000 )
                  (  0.0000000 -1.0000000  0.0000000 )
                  (  0.0000000  0.0000000 -1.0000000 )


      isym = 10     inv. 180 deg rotation - cart. axis [0,0,1]   

 cryst.   s(10) = (     1          0          0      )
                  (     0          1          0      )
                  (     0          0         -1      )

 cart.    s(10) = (  1.0000000  0.0000000  0.0000000 )
                  (  0.0000000  1.0000000  0.0000000 )
                  (  0.0000000  0.0000000 -1.0000000 )


      isym = 11     inv. 180 deg rotation - cart. axis [0,1,0]   

 cryst.   s(11) = (     1          0          0      )    f =( -0.5000000 )
                  (     0         -1          0      )       (  0.5000000 )
                  (     0          0          1      )       ( -0.5000000 )

 cart.    s(11) = (  1.0000000  0.0000000  0.0000000 )    f =( -0.5000000 )
                  (  0.0000000 -1.0000000  0.0000000 )       (  0.5000000 )
                  (  0.0000000  0.0000000  1.0000000 )       ( -0.3509351 )


      isym = 12     inv. 180 deg rotation - cart. axis [1,0,0]   

 cryst.   s(12) = (    -1          0          0      )    f =(  0.5000000 )
                  (     0          1          0      )       ( -0.5000000 )
                  (     0          0          1      )       ( -0.5000000 )

 cart.    s(12) = ( -1.0000000  0.0000000  0.0000000 )    f =(  0.5000000 )
                  (  0.0000000  1.0000000  0.0000000 )       ( -0.5000000 )
                  (  0.0000000  0.0000000  1.0000000 )       ( -0.3509351 )


      isym = 13     inv. 180 deg rotation - cart. axis [1,1,0]   

 cryst.   s(13) = (     0         -1          0      )
                  (    -1          0          0      )
                  (     0          0          1      )

 cart.    s(13) = (  0.0000000 -1.0000000  0.0000000 )
                  ( -1.0000000  0.0000000  0.0000000 )
                  (  0.0000000  0.0000000  1.0000000 )


      isym = 14     inv. 180 deg rotation - cart. axis [1,-1,0]  

 cryst.   s(14) = (     0          1          0      )
                  (     1          0          0      )
                  (     0          0          1      )

 cart.    s(14) = (  0.0000000  1.0000000  0.0000000 )
                  (  1.0000000  0.0000000  0.0000000 )
                  (  0.0000000  0.0000000  1.0000000 )


      isym = 15     inv.  90 deg rotation - cart. axis [0,0,-1]  

 cryst.   s(15) = (     0          1          0      )    f =(  0.5000000 )
                  (    -1          0          0      )       ( -0.5000000 )
                  (     0          0         -1      )       (  0.5000000 )

 cart.    s(15) = (  0.0000000 -1.0000000  0.0000000 )    f =(  0.5000000 )
                  (  1.0000000  0.0000000  0.0000000 )       ( -0.5000000 )
                  (  0.0000000  0.0000000 -1.0000000 )       (  0.3509351 )


      isym = 16     inv.  90 deg rotation - cart. axis [0,0,1]   

 cryst.   s(16) = (     0         -1          0      )    f =( -0.5000000 )
                  (     1          0          0      )       (  0.5000000 )
                  (     0          0         -1      )       (  0.5000000 )

 cart.    s(16) = (  0.0000000  1.0000000  0.0000000 )    f =( -0.5000000 )
                  ( -1.0000000  0.0000000  0.0000000 )       (  0.5000000 )
                  (  0.0000000  0.0000000 -1.0000000 )       (  0.3509351 )


     double point group D_4h(4/mmm)
     there are 14 classes and  4 irreducible representations
     the character table:

       E     -E    2C4   -2C4   C2    2C2' 2C2'' i     -i    2S4   -2S4   s_h 
                               -C2   -2C2' -2C2'                         -s_h 
G_6+   2.00 -2.00  1.41 -1.41  0.00  0.00  0.00  2.00 -2.00  1.41 -1.41  0.00
G_7+   2.00 -2.00 -1.41  1.41  0.00  0.00  0.00  2.00 -2.00 -1.41  1.41  0.00
G_6-   2.00 -2.00  1.41 -1.41  0.00  0.00  0.00 -2.00  2.00 -1.41  1.41  0.00
G_7-   2.00 -2.00 -1.41  1.41  0.00  0.00  0.00 -2.00  2.00  1.41 -1.41  0.00

        2s_v  2s_d
       -2s_v -2s_d
G_6+   0.00  0.00
G_7+   0.00  0.00
G_6-   0.00  0.00
G_7-   0.00  0.00

     the symmetry operations in each class and the name of the first element:

     E             1
          identity                                               
     -E           -1
          identity E                                             
     2C4           7    8
           90 deg rotation - cart. axis [0,0,-1]                 
     -2C4         -7   -8
           90 deg rotation - cart. axis [0,0,-1] E               
      C2  -C2      2   -2
          180 deg rotation - cart. axis [0,0,1]                  
      2C2'-2C2'    3   -3    4   -4
          180 deg rotation - cart. axis [0,1,0]                  
     2C2''-2C2'    5   -5   -6    6
          180 deg rotation - cart. axis [1,1,0]                  
     i             9
          inversion                                              
     -i           -9
          inversion E                                            
     2S4          15   16
          inv.  90 deg rotation - cart. axis [0,0,-1]            
     -2S4        -15  -16
          inv.  90 deg rotation - cart. axis [0,0,-1] E          
      s_h -s_h    10  -10
          inv. 180 deg rotation - cart. axis [0,0,1]             
      2s_v-2s_v   11  -11   12  -12
          inv. 180 deg rotation - cart. axis [0,1,0]             
      2s_d-2s_d   13  -13  -14   14
          inv. 180 deg rotation - cart. axis [1,1,0]             

   Cartesian axes

     site n.     atom                  positions (alat units)
         1           Ir  tau(   1) = (   0.0000000   0.0000000   0.0000000  )
         2           Ir  tau(   2) = (   0.5000000   0.5000000   0.3509351  )
         3           O   tau(   3) = (   0.1916000   0.8084000   0.3509351  )
         4           O   tau(   4) = (   0.3084000   0.3084000   0.0000000  )
         5           O   tau(   5) = (   0.6916000   0.6916000   0.0000000  )
         6           O   tau(   6) = (   0.8084000   0.1916000   0.3509351  )

   Crystallographic axes

     site n.     atom                  positions (cryst. coord.)
         1           Ir  tau(   1) = (  0.0000000  0.0000000  0.0000000  )
         2           Ir  tau(   2) = (  0.5000000  0.5000000  0.5000000  )
         3           O   tau(   3) = (  0.1916000  0.8084000  0.5000000  )
         4           O   tau(   4) = (  0.3084000  0.3084000  0.0000000  )
         5           O   tau(   5) = (  0.6916000  0.6916000  0.0000000  )
         6           O   tau(   6) = (  0.8084000  0.1916000  0.5000000  )

     number of k points=   105  Methfessel-Paxton smearing, width (Ry)=  0.0050
                       cart. coord. in units 2pi/alat
        k(    1) = (   0.0000000   0.0000000   0.0000000), wk =   0.0011111
        k(    2) = (   0.0000000   0.0000000   0.1583072), wk =   0.0022222
        k(    3) = (   0.0000000   0.0000000   0.3166144), wk =   0.0022222
        k(    4) = (   0.0000000   0.0000000   0.4749216), wk =   0.0022222
        k(    5) = (   0.0000000   0.0000000   0.6332288), wk =   0.0022222
        k(    6) = (   0.0000000   0.1000000   0.0000000), wk =   0.0044444
        k(    7) = (   0.0000000   0.1000000   0.1583072), wk =   0.0088889
        k(    8) = (   0.0000000   0.1000000   0.3166144), wk =   0.0088889
        k(    9) = (   0.0000000   0.1000000   0.4749216), wk =   0.0088889
        k(   10) = (   0.0000000   0.1000000   0.6332288), wk =   0.0088889
        k(   11) = (   0.0000000   0.2000000   0.0000000), wk =   0.0044444
        k(   12) = (   0.0000000   0.2000000   0.1583072), wk =   0.0088889
        k(   13) = (   0.0000000   0.2000000   0.3166144), wk =   0.0088889
        k(   14) = (   0.0000000   0.2000000   0.4749216), wk =   0.0088889
        k(   15) = (   0.0000000   0.2000000   0.6332288), wk =   0.0088889
        k(   16) = (   0.0000000   0.3000000   0.0000000), wk =   0.0044444
        k(   17) = (   0.0000000   0.3000000   0.1583072), wk =   0.0088889
        k(   18) = (   0.0000000   0.3000000   0.3166144), wk =   0.0088889
        k(   19) = (   0.0000000   0.3000000   0.4749216), wk =   0.0088889
        k(   20) = (   0.0000000   0.3000000   0.6332288), wk =   0.0088889
        k(   21) = (   0.0000000   0.4000000   0.0000000), wk =   0.0044444
        k(   22) = (   0.0000000   0.4000000   0.1583072), wk =   0.0088889
        k(   23) = (   0.0000000   0.4000000   0.3166144), wk =   0.0088889
        k(   24) = (   0.0000000   0.4000000   0.4749216), wk =   0.0088889
        k(   25) = (   0.0000000   0.4000000   0.6332288), wk =   0.0088889
        k(   26) = (   0.0000000  -0.5000000   0.0000000), wk =   0.0022222
        k(   27) = (   0.0000000  -0.5000000   0.1583072), wk =   0.0044444
        k(   28) = (   0.0000000  -0.5000000   0.3166144), wk =   0.0044444
        k(   29) = (   0.0000000  -0.5000000   0.4749216), wk =   0.0044444
        k(   30) = (   0.0000000  -0.5000000   0.6332288), wk =   0.0044444
        k(   31) = (   0.1000000   0.1000000   0.0000000), wk =   0.0044444
        k(   32) = (   0.1000000   0.1000000   0.1583072), wk =   0.0088889
        k(   33) = (   0.1000000   0.1000000   0.3166144), wk =   0.0088889
        k(   34) = (   0.1000000   0.1000000   0.4749216), wk =   0.0088889
        k(   35) = (   0.1000000   0.1000000   0.6332288), wk =   0.0088889
        k(   36) = (   0.1000000   0.2000000   0.0000000), wk =   0.0088889
        k(   37) = (   0.1000000   0.2000000   0.1583072), wk =   0.0177778
        k(   38) = (   0.1000000   0.2000000   0.3166144), wk =   0.0177778
        k(   39) = (   0.1000000   0.2000000   0.4749216), wk =   0.0177778
        k(   40) = (   0.1000000   0.2000000   0.6332288), wk =   0.0177778
        k(   41) = (   0.1000000   0.3000000   0.0000000), wk =   0.0088889
        k(   42) = (   0.1000000   0.3000000   0.1583072), wk =   0.0177778
        k(   43) = (   0.1000000   0.3000000   0.3166144), wk =   0.0177778
        k(   44) = (   0.1000000   0.3000000   0.4749216), wk =   0.0177778
        k(   45) = (   0.1000000   0.3000000   0.6332288), wk =   0.0177778
        k(   46) = (   0.1000000   0.4000000   0.0000000), wk =   0.0088889
        k(   47) = (   0.1000000   0.4000000   0.1583072), wk =   0.0177778
        k(   48) = (   0.1000000   0.4000000   0.3166144), wk =   0.0177778
        k(   49) = (   0.1000000   0.4000000   0.4749216), wk =   0.0177778
        k(   50) = (   0.1000000   0.4000000   0.6332288), wk =   0.0177778
        k(   51) = (   0.1000000  -0.5000000   0.0000000), wk =   0.0044444
        k(   52) = (   0.1000000  -0.5000000   0.1583072), wk =   0.0088889
        k(   53) = (   0.1000000  -0.5000000   0.3166144), wk =   0.0088889
        k(   54) = (   0.1000000  -0.5000000   0.4749216), wk =   0.0088889
        k(   55) = (   0.1000000  -0.5000000   0.6332288), wk =   0.0088889
        k(   56) = (   0.2000000   0.2000000   0.0000000), wk =   0.0044444
        k(   57) = (   0.2000000   0.2000000   0.1583072), wk =   0.0088889
        k(   58) = (   0.2000000   0.2000000   0.3166144), wk =   0.0088889
        k(   59) = (   0.2000000   0.2000000   0.4749216), wk =   0.0088889
        k(   60) = (   0.2000000   0.2000000   0.6332288), wk =   0.0088889
        k(   61) = (   0.2000000   0.3000000   0.0000000), wk =   0.0088889
        k(   62) = (   0.2000000   0.3000000   0.1583072), wk =   0.0177778
        k(   63) = (   0.2000000   0.3000000   0.3166144), wk =   0.0177778
        k(   64) = (   0.2000000   0.3000000   0.4749216), wk =   0.0177778
        k(   65) = (   0.2000000   0.3000000   0.6332288), wk =   0.0177778
        k(   66) = (   0.2000000   0.4000000   0.0000000), wk =   0.0088889
        k(   67) = (   0.2000000   0.4000000   0.1583072), wk =   0.0177778
        k(   68) = (   0.2000000   0.4000000   0.3166144), wk =   0.0177778
        k(   69) = (   0.2000000   0.4000000   0.4749216), wk =   0.0177778
        k(   70) = (   0.2000000   0.4000000   0.6332288), wk =   0.0177778
        k(   71) = (   0.2000000  -0.5000000   0.0000000), wk =   0.0044444
        k(   72) = (   0.2000000  -0.5000000   0.1583072), wk =   0.0088889
        k(   73) = (   0.2000000  -0.5000000   0.3166144), wk =   0.0088889
        k(   74) = (   0.2000000  -0.5000000   0.4749216), wk =   0.0088889
        k(   75) = (   0.2000000  -0.5000000   0.6332288), wk =   0.0088889
        k(   76) = (   0.3000000   0.3000000   0.0000000), wk =   0.0044444
        k(   77) = (   0.3000000   0.3000000   0.1583072), wk =   0.0088889
        k(   78) = (   0.3000000   0.3000000   0.3166144), wk =   0.0088889
        k(   79) = (   0.3000000   0.3000000   0.4749216), wk =   0.0088889
        k(   80) = (   0.3000000   0.3000000   0.6332288), wk =   0.0088889
        k(   81) = (   0.3000000   0.4000000   0.0000000), wk =   0.0088889
        k(   82) = (   0.3000000   0.4000000   0.1583072), wk =   0.0177778
        k(   83) = (   0.3000000   0.4000000   0.3166144), wk =   0.0177778
        k(   84) = (   0.3000000   0.4000000   0.4749216), wk =   0.0177778
        k(   85) = (   0.3000000   0.4000000   0.6332288), wk =   0.0177778
        k(   86) = (   0.3000000  -0.5000000   0.0000000), wk =   0.0044444
        k(   87) = (   0.3000000  -0.5000000   0.1583072), wk =   0.0088889
        k(   88) = (   0.3000000  -0.5000000   0.3166144), wk =   0.0088889
        k(   89) = (   0.3000000  -0.5000000   0.4749216), wk =   0.0088889
        k(   90) = (   0.3000000  -0.5000000   0.6332288), wk =   0.0088889
        k(   91) = (   0.4000000   0.4000000   0.0000000), wk =   0.0044444
        k(   92) = (   0.4000000   0.4000000   0.1583072), wk =   0.0088889
        k(   93) = (   0.4000000   0.4000000   0.3166144), wk =   0.0088889
        k(   94) = (   0.4000000   0.4000000   0.4749216), wk =   0.0088889
        k(   95) = (   0.4000000   0.4000000   0.6332288), wk =   0.0088889
        k(   96) = (   0.4000000  -0.5000000   0.0000000), wk =   0.0044444
        k(   97) = (   0.4000000  -0.5000000   0.1583072), wk =   0.0088889
        k(   98) = (   0.4000000  -0.5000000   0.3166144), wk =   0.0088889
        k(   99) = (   0.4000000  -0.5000000   0.4749216), wk =   0.0088889
        k(  100) = (   0.4000000  -0.5000000   0.6332288), wk =   0.0088889
        k(  101) = (  -0.5000000  -0.5000000   0.0000000), wk =   0.0011111
        k(  102) = (  -0.5000000  -0.5000000   0.1583072), wk =   0.0022222
        k(  103) = (  -0.5000000  -0.5000000   0.3166144), wk =   0.0022222
        k(  104) = (  -0.5000000  -0.5000000   0.4749216), wk =   0.0022222
        k(  105) = (  -0.5000000  -0.5000000   0.6332288), wk =   0.0022222

                       cryst. coord.
        k(    1) = (   0.0000000   0.0000000   0.0000000), wk =   0.0011111
        k(    2) = (   0.0000000   0.0000000   0.1111111), wk =   0.0022222
        k(    3) = (   0.0000000   0.0000000   0.2222222), wk =   0.0022222
        k(    4) = (   0.0000000   0.0000000   0.3333333), wk =   0.0022222
        k(    5) = (   0.0000000   0.0000000   0.4444444), wk =   0.0022222
        k(    6) = (   0.0000000   0.1000000   0.0000000), wk =   0.0044444
        k(    7) = (   0.0000000   0.1000000   0.1111111), wk =   0.0088889
        k(    8) = (   0.0000000   0.1000000   0.2222222), wk =   0.0088889
        k(    9) = (   0.0000000   0.1000000   0.3333333), wk =   0.0088889
        k(   10) = (   0.0000000   0.1000000   0.4444444), wk =   0.0088889
        k(   11) = (   0.0000000   0.2000000   0.0000000), wk =   0.0044444
        k(   12) = (   0.0000000   0.2000000   0.1111111), wk =   0.0088889
        k(   13) = (   0.0000000   0.2000000   0.2222222), wk =   0.0088889
        k(   14) = (   0.0000000   0.2000000   0.3333333), wk =   0.0088889
        k(   15) = (   0.0000000   0.2000000   0.4444444), wk =   0.0088889
        k(   16) = (   0.0000000   0.3000000   0.0000000), wk =   0.0044444
        k(   17) = (   0.0000000   0.3000000   0.1111111), wk =   0.0088889
        k(   18) = (   0.0000000   0.3000000   0.2222222), wk =   0.0088889
        k(   19) = (   0.0000000   0.3000000   0.3333333), wk =   0.0088889
        k(   20) = (   0.0000000   0.3000000   0.4444444), wk =   0.0088889
        k(   21) = (   0.0000000   0.4000000   0.0000000), wk =   0.0044444
        k(   22) = (   0.0000000   0.4000000   0.1111111), wk =   0.0088889
        k(   23) = (   0.0000000   0.4000000   0.2222222), wk =   0.0088889
        k(   24) = (   0.0000000   0.4000000   0.3333333), wk =   0.0088889
        k(   25) = (   0.0000000   0.4000000   0.4444444), wk =   0.0088889
        k(   26) = (   0.0000000  -0.5000000   0.0000000), wk =   0.0022222
        k(   27) = (   0.0000000  -0.5000000   0.1111111), wk =   0.0044444
        k(   28) = (   0.0000000  -0.5000000   0.2222222), wk =   0.0044444
        k(   29) = (   0.0000000  -0.5000000   0.3333333), wk =   0.0044444
        k(   30) = (   0.0000000  -0.5000000   0.4444444), wk =   0.0044444
        k(   31) = (   0.1000000   0.1000000   0.0000000), wk =   0.0044444
        k(   32) = (   0.1000000   0.1000000   0.1111111), wk =   0.0088889
        k(   33) = (   0.1000000   0.1000000   0.2222222), wk =   0.0088889
        k(   34) = (   0.1000000   0.1000000   0.3333333), wk =   0.0088889
        k(   35) = (   0.1000000   0.1000000   0.4444444), wk =   0.0088889
        k(   36) = (   0.1000000   0.2000000   0.0000000), wk =   0.0088889
        k(   37) = (   0.1000000   0.2000000   0.1111111), wk =   0.0177778
        k(   38) = (   0.1000000   0.2000000   0.2222222), wk =   0.0177778
        k(   39) = (   0.1000000   0.2000000   0.3333333), wk =   0.0177778
        k(   40) = (   0.1000000   0.2000000   0.4444444), wk =   0.0177778
        k(   41) = (   0.1000000   0.3000000   0.0000000), wk =   0.0088889
        k(   42) = (   0.1000000   0.3000000   0.1111111), wk =   0.0177778
        k(   43) = (   0.1000000   0.3000000   0.2222222), wk =   0.0177778
        k(   44) = (   0.1000000   0.3000000   0.3333333), wk =   0.0177778
        k(   45) = (   0.1000000   0.3000000   0.4444444), wk =   0.0177778
        k(   46) = (   0.1000000   0.4000000   0.0000000), wk =   0.0088889
        k(   47) = (   0.1000000   0.4000000   0.1111111), wk =   0.0177778
        k(   48) = (   0.1000000   0.4000000   0.2222222), wk =   0.0177778
        k(   49) = (   0.1000000   0.4000000   0.3333333), wk =   0.0177778
        k(   50) = (   0.1000000   0.4000000   0.4444444), wk =   0.0177778
        k(   51) = (   0.1000000  -0.5000000   0.0000000), wk =   0.0044444
        k(   52) = (   0.1000000  -0.5000000   0.1111111), wk =   0.0088889
        k(   53) = (   0.1000000  -0.5000000   0.2222222), wk =   0.0088889
        k(   54) = (   0.1000000  -0.5000000   0.3333333), wk =   0.0088889
        k(   55) = (   0.1000000  -0.5000000   0.4444444), wk =   0.0088889
        k(   56) = (   0.2000000   0.2000000   0.0000000), wk =   0.0044444
        k(   57) = (   0.2000000   0.2000000   0.1111111), wk =   0.0088889
        k(   58) = (   0.2000000   0.2000000   0.2222222), wk =   0.0088889
        k(   59) = (   0.2000000   0.2000000   0.3333333), wk =   0.0088889
        k(   60) = (   0.2000000   0.2000000   0.4444444), wk =   0.0088889
        k(   61) = (   0.2000000   0.3000000   0.0000000), wk =   0.0088889
        k(   62) = (   0.2000000   0.3000000   0.1111111), wk =   0.0177778
        k(   63) = (   0.2000000   0.3000000   0.2222222), wk =   0.0177778
        k(   64) = (   0.2000000   0.3000000   0.3333333), wk =   0.0177778
        k(   65) = (   0.2000000   0.3000000   0.4444444), wk =   0.0177778
        k(   66) = (   0.2000000   0.4000000   0.0000000), wk =   0.0088889
        k(   67) = (   0.2000000   0.4000000   0.1111111), wk =   0.0177778
        k(   68) = (   0.2000000   0.4000000   0.2222222), wk =   0.0177778
        k(   69) = (   0.2000000   0.4000000   0.3333333), wk =   0.0177778
        k(   70) = (   0.2000000   0.4000000   0.4444444), wk =   0.0177778
        k(   71) = (   0.2000000  -0.5000000   0.0000000), wk =   0.0044444
        k(   72) = (   0.2000000  -0.5000000   0.1111111), wk =   0.0088889
        k(   73) = (   0.2000000  -0.5000000   0.2222222), wk =   0.0088889
        k(   74) = (   0.2000000  -0.5000000   0.3333333), wk =   0.0088889
        k(   75) = (   0.2000000  -0.5000000   0.4444444), wk =   0.0088889
        k(   76) = (   0.3000000   0.3000000   0.0000000), wk =   0.0044444
        k(   77) = (   0.3000000   0.3000000   0.1111111), wk =   0.0088889
        k(   78) = (   0.3000000   0.3000000   0.2222222), wk =   0.0088889
        k(   79) = (   0.3000000   0.3000000   0.3333333), wk =   0.0088889
        k(   80) = (   0.3000000   0.3000000   0.4444444), wk =   0.0088889
        k(   81) = (   0.3000000   0.4000000   0.0000000), wk =   0.0088889
        k(   82) = (   0.3000000   0.4000000   0.1111111), wk =   0.0177778
        k(   83) = (   0.3000000   0.4000000   0.2222222), wk =   0.0177778
        k(   84) = (   0.3000000   0.4000000   0.3333333), wk =   0.0177778
        k(   85) = (   0.3000000   0.4000000   0.4444444), wk =   0.0177778
        k(   86) = (   0.3000000  -0.5000000   0.0000000), wk =   0.0044444
        k(   87) = (   0.3000000  -0.5000000   0.1111111), wk =   0.0088889
        k(   88) = (   0.3000000  -0.5000000   0.2222222), wk =   0.0088889
        k(   89) = (   0.3000000  -0.5000000   0.3333333), wk =   0.0088889
        k(   90) = (   0.3000000  -0.5000000   0.4444444), wk =   0.0088889
        k(   91) = (   0.4000000   0.4000000   0.0000000), wk =   0.0044444
        k(   92) = (   0.4000000   0.4000000   0.1111111), wk =   0.0088889
        k(   93) = (   0.4000000   0.4000000   0.2222222), wk =   0.0088889
        k(   94) = (   0.4000000   0.4000000   0.3333333), wk =   0.0088889
        k(   95) = (   0.4000000   0.4000000   0.4444444), wk =   0.0088889
        k(   96) = (   0.4000000  -0.5000000   0.0000000), wk =   0.0044444
        k(   97) = (   0.4000000  -0.5000000   0.1111111), wk =   0.0088889
        k(   98) = (   0.4000000  -0.5000000   0.2222222), wk =   0.0088889
        k(   99) = (   0.4000000  -0.5000000   0.3333333), wk =   0.0088889
        k(  100) = (   0.4000000  -0.5000000   0.4444444), wk =   0.0088889
        k(  101) = (  -0.5000000  -0.5000000   0.0000000), wk =   0.0011111
        k(  102) = (  -0.5000000  -0.5000000   0.1111111), wk =   0.0022222
        k(  103) = (  -0.5000000  -0.5000000   0.2222222), wk =   0.0022222
        k(  104) = (  -0.5000000  -0.5000000   0.3333333), wk =   0.0022222
        k(  105) = (  -0.5000000  -0.5000000   0.4444444), wk =   0.0022222

     Dense  grid:    42999 G-vectors     FFT dimensions: (  50,  50,  36)

     Dynamical RAM for                 wfc:       0.36 MB

     Dynamical RAM for     wfc (w. buffer):      37.82 MB

     Dynamical RAM for           str. fact:       0.04 MB

     Dynamical RAM for           local pot:       0.00 MB

     Dynamical RAM for          nlocal pot:       0.46 MB

     Dynamical RAM for                qrad:      20.10 MB

     Dynamical RAM for          rho,v,vnew:       0.70 MB

     Dynamical RAM for               rhoin:       0.23 MB

     Dynamical RAM for            rho*nmix:       1.31 MB

     Dynamical RAM for           G-vectors:       0.09 MB

     Dynamical RAM for          h,s,v(r/c):       0.04 MB

     Dynamical RAM for          <psi|beta>:       0.38 MB

     Dynamical RAM for                 psi:       0.71 MB

     Dynamical RAM for                hpsi:       0.71 MB

     Dynamical RAM for      wfcinit/wfcrot:       0.67 MB

     Estimated static dynamical RAM per process >      59.81 MB

     Estimated max dynamical RAM per process >      62.97 MB

     Estimated total dynamical RAM >       1.97 GB

     Initial potential from superposition of free atoms

     starting charge      57.9997, renormalised to      58.0000
     Starting wfcs are   72 randomized atomic wfcs

     total cpu time spent up to now is        5.5 secs

     Self-consistent Calculation

     iteration #  1     ecut=    80.00 Ry     beta= 0.70
     Davidson diagonalization with overlap

---- Real-time Memory Report at c_bands before calling an iterative solver
           115 MiB given to the printing process from OS
             0 MiB allocation reported by mallinfo(arena+hblkhd)
        227814 MiB available memory on the node where the printing process lives
------------------
     ethr =  1.00E-02,  avg # of iterations =  2.8

     total cpu time spent up to now is       23.9 secs

     total energy              =    -552.42689399 Ry
     estimated scf accuracy    <       1.21442940 Ry

     iteration #  2     ecut=    80.00 Ry     beta= 0.70
     Davidson diagonalization with overlap

---- Real-time Memory Report at c_bands before calling an iterative solver
           123 MiB given to the printing process from OS
             0 MiB allocation reported by mallinfo(arena+hblkhd)
        227648 MiB available memory on the node where the printing process lives
------------------
     ethr =  2.09E-03,  avg # of iterations =  2.0

     total cpu time spent up to now is       43.8 secs

     total energy              =    -552.28775096 Ry
     estimated scf accuracy    <       4.26270817 Ry

     iteration #  3     ecut=    80.00 Ry     beta= 0.70
     Davidson diagonalization with overlap

---- Real-time Memory Report at c_bands before calling an iterative solver
           124 MiB given to the printing process from OS
             0 MiB allocation reported by mallinfo(arena+hblkhd)
        227630 MiB available memory on the node where the printing process lives
------------------
     ethr =  2.09E-03,  avg # of iterations =  2.0

     total cpu time spent up to now is       62.4 secs

     total energy              =    -553.07595352 Ry
     estimated scf accuracy    <       0.03293053 Ry

     iteration #  4     ecut=    80.00 Ry     beta= 0.70
     Davidson diagonalization with overlap

---- Real-time Memory Report at c_bands before calling an iterative solver
           125 MiB given to the printing process from OS
             0 MiB allocation reported by mallinfo(arena+hblkhd)
        227617 MiB available memory on the node where the printing process lives
------------------
     ethr =  5.68E-05,  avg # of iterations =  2.7

     total cpu time spent up to now is       81.5 secs

     total energy              =    -553.07955934 Ry
     estimated scf accuracy    <       0.00467775 Ry

     iteration #  5     ecut=    80.00 Ry     beta= 0.70
     Davidson diagonalization with overlap

---- Real-time Memory Report at c_bands before calling an iterative solver
           126 MiB given to the printing process from OS
             0 MiB allocation reported by mallinfo(arena+hblkhd)
        227601 MiB available memory on the node where the printing process lives
------------------
     ethr =  8.07E-06,  avg # of iterations =  2.4

     total cpu time spent up to now is       98.2 secs

     total energy              =    -553.08036011 Ry
     estimated scf accuracy    <       0.00023529 Ry

     iteration #  6     ecut=    80.00 Ry     beta= 0.70
     Davidson diagonalization with overlap

---- Real-time Memory Report at c_bands before calling an iterative solver
           127 MiB given to the printing process from OS
             0 MiB allocation reported by mallinfo(arena+hblkhd)
        227583 MiB available memory on the node where the printing process lives
------------------
     ethr =  4.06E-07,  avg # of iterations =  2.7

     total cpu time spent up to now is      115.4 secs

     total energy              =    -553.08039168 Ry
     estimated scf accuracy    <       0.00000825 Ry

     iteration #  7     ecut=    80.00 Ry     beta= 0.70
     Davidson diagonalization with overlap

---- Real-time Memory Report at c_bands before calling an iterative solver
           127 MiB given to the printing process from OS
             0 MiB allocation reported by mallinfo(arena+hblkhd)
        227578 MiB available memory on the node where the printing process lives
------------------
     ethr =  1.42E-08,  avg # of iterations =  2.1

     total cpu time spent up to now is      135.0 secs

     total energy              =    -553.08039454 Ry
     estimated scf accuracy    <       0.00000057 Ry

     iteration #  8     ecut=    80.00 Ry     beta= 0.70
     Davidson diagonalization with overlap

---- Real-time Memory Report at c_bands before calling an iterative solver
           131 MiB given to the printing process from OS
             0 MiB allocation reported by mallinfo(arena+hblkhd)
        227510 MiB available memory on the node where the printing process lives
------------------
     ethr =  9.79E-10,  avg # of iterations =  2.1

     total cpu time spent up to now is      151.3 secs

     total energy              =    -553.08039458 Ry
     estimated scf accuracy    <       0.00000007 Ry

     iteration #  9     ecut=    80.00 Ry     beta= 0.70
     Davidson diagonalization with overlap

---- Real-time Memory Report at c_bands before calling an iterative solver
           131 MiB given to the printing process from OS
             0 MiB allocation reported by mallinfo(arena+hblkhd)
        227509 MiB available memory on the node where the printing process lives
------------------
     ethr =  1.25E-10,  avg # of iterations =  2.1

     total cpu time spent up to now is      169.9 secs

     total energy              =    -553.08039459 Ry
     estimated scf accuracy    <          4.2E-09 Ry

     iteration # 10     ecut=    80.00 Ry     beta= 0.70
     Davidson diagonalization with overlap

---- Real-time Memory Report at c_bands before calling an iterative solver
           131 MiB given to the printing process from OS
             0 MiB allocation reported by mallinfo(arena+hblkhd)
        227506 MiB available memory on the node where the printing process lives
------------------
     ethr =  7.20E-12,  avg # of iterations =  2.4

     total cpu time spent up to now is      188.6 secs

     End of self-consistent calculation

          k = 0.0000 0.0000 0.0000 (  5409 PWs)   bands (ev):

   -79.3834 -79.3834 -79.3821 -79.3821 -46.2260 -46.2260 -46.2152 -46.2152
   -32.7648 -32.7648 -32.7539 -32.7539 -32.6219 -32.6219 -32.6077 -32.6077
    -7.0741  -7.0741  -5.9183  -5.9183  -5.0033  -5.0033  -4.8019  -4.8019
     4.2691   4.2691   4.5163   4.5163   6.0330   6.0330   6.1445   6.1445
     6.2584   6.2584   8.7861   8.7861   8.9382   8.9382   9.1958   9.1958
    10.3331  10.3331  10.9884  10.9884  10.9914  10.9914  11.0309  11.0309
    11.2044  11.2044  11.3853  11.3853  11.6467  11.6467  11.6736  11.6736
    12.0587  12.0587  14.6456  14.6456  15.0718  15.0718  17.6887  17.6887
    17.8970  17.8970  18.0458  18.0458  19.4483  19.4483

     occupation numbers 
     1.0000   1.0000   1.0000   1.0000   1.0000   1.0000   1.0000   1.0000
     1.0000   1.0000   1.0000   1.0000   1.0000   1.0000   1.0000   1.0000
     1.0000   1.0000   1.0000   1.0000   1.0000   1.0000   1.0000   1.0000
     1.0000   1.0000   1.0000   1.0000   1.0000   1.0000   1.0000   1.0000
     1.0000   1.0000   1.0000   1.0000   1.0000   1.0000   1.0000   1.0000
     1.0000   1.0000   1.0000   1.0000   1.0000   1.0000   1.0000   1.0000
     1.0000   1.0000   1.0000   1.0000   1.0000   1.0000   1.0000   1.0000
     1.0000   1.0000  -0.0000  -0.0000  -0.0000  -0.0000  -0.0000  -0.0000
    -0.0000  -0.0000  -0.0000  -0.0000  -0.0000  -0.0000

          k = 0.0000 0.0000 0.1583 (  5361 PWs)   bands (ev):

   -79.3831 -79.3831 -79.3819 -79.3819 -46.2270 -46.2270 -46.2169 -46.2169
   -32.7674 -32.7674 -32.7606 -32.7606 -32.6270 -32.6270 -32.6101 -32.6101
    -6.9618  -6.9618  -5.8597  -5.8597  -5.0561  -5.0561  -4.8725  -4.8725
     4.4325   4.4325   4.6346   4.6346   6.1309   6.1309   6.2120   6.2120
     6.3775   6.3775   8.3482   8.3482   9.0281   9.0281   9.2825   9.2825
     9.6570   9.6570  10.2176  10.2176  10.3331  10.3331  11.3369  11.3369
    11.5911  11.5911  11.6102  11.6102  11.6949  11.6949  12.2613  12.2613
    12.3741  12.3741  14.9097  14.9097  14.9555  14.9555  17.3967  17.3967
    17.7171  17.7171  18.2270  18.2270  19.2230  19.2230

     occupation numbers 
     1.0000   1.0000   1.0000   1.0000   1.0000   1.0000   1.0000   1.0000
     1.0000   1.0000   1.0000   1.0000   1.0000   1.0000   1.0000   1.0000
     1.0000   1.0000   1.0000   1.0000   1.0000   1.0000   1.0000   1.0000
     1.0000   1.0000   1.0000   1.0000   1.0000   1.0000   1.0000   1.0000
     1.0000   1.0000   1.0000   1.0000   1.0000   1.0000   1.0000   1.0000
     1.0000   1.0000   1.0000   1.0000   1.0000   1.0000   1.0000   1.0000
     1.0000   1.0000   1.0000   1.0000   1.0000   1.0000   1.0000   1.0000
     1.0000   1.0000  -0.0000  -0.0000  -0.0000  -0.0000  -0.0000  -0.0000
    -0.0000  -0.0000  -0.0000  -0.0000  -0.0000  -0.0000

          k = 0.0000 0.0000 0.3166 (  5381 PWs)   bands (ev):

   -79.3823 -79.3823 -79.3813 -79.3813 -46.2293 -46.2293 -46.2211 -46.2211
   -32.7783 -32.7783 -32.7773 -32.7773 -32.6361 -32.6361 -32.6157 -32.6157
    -6.6566  -6.6566  -5.7254  -5.7254  -5.1833  -5.1833  -5.0480  -5.0480
     4.8893   4.8893   4.9485   4.9485   6.3892   6.3892   6.4048   6.4048
     6.7329   6.7329   7.4662   7.4662   8.5372   8.5372   9.2508   9.2508
     9.3599   9.3599   9.5301   9.5301   9.7347   9.7347  10.7781  10.7781
    11.7808  11.7808  11.8692  11.8692  12.0998  12.0998  13.0159  13.0159
    13.0361  13.0361  14.6278  14.6278  15.4972  15.4972  16.8019  16.8019
    17.0978  17.0978  18.1983  18.1983  19.5582  19.5582

     occupation numbers 
     1.0000   1.0000   1.0000   1.0000   1.0000   1.0000   1.0000   1.0000
     1.0000   1.0000   1.0000   1.0000   1.0000   1.0000   1.0000   1.0000
     1.0000   1.0000   1.0000   1.0000   1.0000   1.0000   1.0000   1.0000
     1.0000   1.0000   1.0000   1.0000   1.0000   1.0000   1.0000   1.0000
     1.0000   1.0000   1.0000   1.0000   1.0000   1.0000   1.0000   1.0000
     1.0000   1.0000   1.0000   1.0000   1.0000   1.0000   1.0000   1.0000
     1.0000   1.0000   1.0000   1.0000   1.0000   1.0000   1.0000   1.0000
     1.0000   1.0000  -0.0000  -0.0000  -0.0000  -0.0000  -0.0000  -0.0000
    -0.0000  -0.0000  -0.0000  -0.0000  -0.0000  -0.0000

          k = 0.0000 0.0000 0.4749 (  5385 PWs)   bands (ev):

   -79.3814 -79.3814 -79.3807 -79.3807 -46.2317 -46.2317 -46.2263 -46.2263
   -32.7989 -32.7989 -32.7944 -32.7944 -32.6394 -32.6394 -32.6221 -32.6221
    -6.2482  -6.2482  -5.6220  -5.6220  -5.3130  -5.3130  -5.2441  -5.2441
     5.3325   5.3325   5.5059   5.5059   6.5564   6.5564   6.7265   6.7265
     6.8440   6.8440   7.3057   7.3057   7.6372   7.6372   8.6709   8.6709
     8.8252   8.8252   9.6601   9.6601   9.9063   9.9063   9.9389   9.9389
    11.7957  11.7957  12.1876  12.1876  12.2734  12.2734  13.5532  13.5532
    13.6457  13.6457  14.1935  14.1935  15.9778  15.9778  16.3336  16.3336
    16.6288  16.6288  17.3641  17.3641  20.8844  20.8844

     occupation numbers 
     1.0000   1.0000   1.0000   1.0000   1.0000   1.0000   1.0000   1.0000
     1.0000   1.0000   1.0000   1.0000   1.0000   1.0000   1.0000   1.0000
     1.0000   1.0000   1.0000   1.0000   1.0000   1.0000   1.0000   1.0000
     1.0000   1.0000   1.0000   1.0000   1.0000   1.0000   1.0000   1.0000
     1.0000   1.0000   1.0000   1.0000   1.0000   1.0000   1.0000   1.0000
     1.0000   1.0000   1.0000   1.0000   1.0000   1.0000   1.0000   1.0000
     1.0000   1.0000   1.0000   1.0000   1.0000   1.0000   1.0000   1.0000
     1.0000   1.0000  -0.0000  -0.0000  -0.0000  -0.0000  -0.0000  -0.0000
    -0.0000  -0.0000  -0.0000  -0.0000  -0.0000  -0.0000

          k = 0.0000 0.0000 0.6332 (  5390 PWs)   bands (ev):

   -79.3806 -79.3806 -79.3804 -79.3804 -46.2324 -46.2324 -46.2306 -46.2306
   -32.8116 -32.8116 -32.8094 -32.8094 -32.6356 -32.6356 -32.6289 -32.6289
    -5.8687  -5.8687  -5.6504  -5.6504  -5.3925  -5.3925  -5.3770  -5.3770
     5.6277   5.6277   5.8096   5.8096   6.4884   6.4884   6.9382   6.9382
     7.0513   7.0513   7.0584   7.0584   8.0698   8.0698   8.2549   8.2549
     8.3480   8.3480   9.0021   9.0021   9.8893   9.8893   9.9862   9.9862
    11.8211  11.8211  12.0071  12.0071  12.7972  12.7972  13.3608  13.3608
    14.0410  14.0410  14.1195  14.1195  16.0904  16.0904  16.1253  16.1253
    16.5383  16.5383  16.7583  16.7583  22.2806  22.2806

     occupation numbers 
     1.0000   1.0000   1.0000   1.0000   1.0000   1.0000   1.0000   1.0000
     1.0000   1.0000   1.0000   1.0000   1.0000   1.0000   1.0000   1.0000
     1.0000   1.0000   1.0000   1.0000   1.0000   1.0000   1.0000   1.0000
     1.0000   1.0000   1.0000   1.0000   1.0000   1.0000   1.0000   1.0000
     1.0000   1.0000   1.0000   1.0000   1.0000   1.0000   1.0000   1.0000
     1.0000   1.0000   1.0000   1.0000   1.0000   1.0000   1.0000   1.0000
     1.0000   1.0000   1.0000   1.0000   1.0000   1.0000   1.0000   1.0000
    -0.0007  -0.0007  -0.0000  -0.0000  -0.0000  -0.0000  -0.0000  -0.0000
    -0.0000  -0.0000  -0.0000  -0.0000  -0.0000  -0.0000

          k = 0.0000 0.1000 0.0000 (  5371 PWs)   bands (ev):

   -79.3834 -79.3834 -79.3822 -79.3822 -46.2257 -46.2257 -46.2155 -46.2155
   -32.7642 -32.7642 -32.7539 -32.7539 -32.6219 -32.6219 -32.6084 -32.6084
    -7.0362  -7.0362  -5.9131  -5.9131  -5.0360  -5.0360  -4.8411  -4.8411
     4.3663   4.3663   4.5893   4.5893   6.0482   6.0482   6.1533   6.1533
     6.3206   6.3206   8.7393   8.7393   8.7905   8.7905   9.0521   9.0521
    10.1100  10.1100  10.6263  10.6263  10.8057  10.8057  11.2752  11.2752
    11.3586  11.3586  11.5537  11.5537  11.6566  11.6566  11.7900  11.7900
    12.1965  12.1965  14.8089  14.8089  14.9999  14.9999  17.6518  17.6518
    17.9911  17.9911  18.0725  18.0725  19.3577  19.3577

     occupation numbers 
     1.0000   1.0000   1.0000   1.0000   1.0000   1.0000   1.0000   1.0000
     1.0000   1.0000   1.0000   1.0000   1.0000   1.0000   1.0000   1.0000
     1.0000   1.0000   1.0000   1.0000   1.0000   1.0000   1.0000   1.0000
     1.0000   1.0000   1.0000   1.0000   1.0000   1.0000   1.0000   1.0000
     1.0000   1.0000   1.0000   1.0000   1.0000   1.0000   1.0000   1.0000
     1.0000   1.0000   1.0000   1.0000   1.0000   1.0000   1.0000   1.0000
     1.0000   1.0000   1.0000   1.0000   1.0000   1.0000   1.0000   1.0000
     1.0000   1.0000  -0.0000  -0.0000  -0.0000  -0.0000  -0.0000  -0.0000
    -0.0000  -0.0000  -0.0000  -0.0000  -0.0000  -0.0000

          k = 0.0000 0.1000 0.1583 (  5368 PWs)   bands (ev):

   -79.3831 -79.3831 -79.3819 -79.3819 -46.2267 -46.2267 -46.2171 -46.2171
   -32.7674 -32.7674 -32.7601 -32.7601 -32.6270 -32.6270 -32.6108 -32.6108
    -6.9253  -6.9253  -5.8529  -5.8529  -5.0877  -5.0877  -4.9096  -4.9096
     4.5221   4.5221   4.7067   4.7067   6.1342   6.1342   6.2106   6.2106
     6.4623   6.4623   8.2871   8.2871   8.8802   8.8802   9.1340   9.1340
     9.5135   9.5135  10.2062  10.2062  10.2782  10.2782  11.3736  11.3736
    11.4916  11.4916  11.7591  11.7591  11.8194  11.8194  12.2690  12.2690
    12.4709  12.4709  14.8801  14.8801  15.0643  15.0643  17.3252  17.3252
    17.6405  17.6405  18.4407  18.4407  19.1552  19.1552

     occupation numbers 
     1.0000   1.0000   1.0000   1.0000   1.0000   1.0000   1.0000   1.0000
     1.0000   1.0000   1.0000   1.0000   1.0000   1.0000   1.0000   1.0000
     1.0000   1.0000   1.0000   1.0000   1.0000   1.0000   1.0000   1.0000
     1.0000   1.0000   1.0000   1.0000   1.0000   1.0000   1.0000   1.0000
     1.0000   1.0000   1.0000   1.0000   1.0000   1.0000   1.0000   1.0000
     1.0000   1.0000   1.0000   1.0000   1.0000   1.0000   1.0000   1.0000
     1.0000   1.0000   1.0000   1.0000   1.0000   1.0000   1.0000   1.0000
     1.0000   1.0000  -0.0000  -0.0000  -0.0000  -0.0000  -0.0000  -0.0000
    -0.0000  -0.0000  -0.0000  -0.0000  -0.0000  -0.0000

          k = 0.0000 0.1000 0.3166 (  5374 PWs)   bands (ev):

   -79.3823 -79.3823 -79.3813 -79.3813 -46.2292 -46.2292 -46.2213 -46.2213
   -32.7810 -32.7810 -32.7743 -32.7743 -32.6360 -32.6360 -32.6161 -32.6161
    -6.6246  -6.6246  -5.7159  -5.7159  -5.2109  -5.2109  -5.0777  -5.0777
     4.9511   4.9511   5.0196   5.0196   6.3658   6.3658   6.4061   6.4061
     6.8447   6.8447   7.4151   7.4151   8.3338   8.3338   9.1864   9.1864
     9.4144   9.4144   9.5444   9.5444   9.6012   9.6012  10.8704  10.8704
    11.6846  11.6846  11.9580  11.9580  12.1838  12.1838  12.9621  12.9621
    13.0863  13.0863  14.5753  14.5753  15.6148  15.6148  16.6966  16.6966
    17.0195  17.0195  18.3211  18.3211  19.6369  19.6369

     occupation numbers 
     1.0000   1.0000   1.0000   1.0000   1.0000   1.0000   1.0000   1.0000
     1.0000   1.0000   1.0000   1.0000   1.0000   1.0000   1.0000   1.0000
     1.0000   1.0000   1.0000   1.0000   1.0000   1.0000   1.0000   1.0000
     1.0000   1.0000   1.0000   1.0000   1.0000   1.0000   1.0000   1.0000
     1.0000   1.0000   1.0000   1.0000   1.0000   1.0000   1.0000   1.0000
     1.0000   1.0000   1.0000   1.0000   1.0000   1.0000   1.0000   1.0000
     1.0000   1.0000   1.0000   1.0000   1.0000   1.0000   1.0000   1.0000
     1.0000   1.0000  -0.0000  -0.0000  -0.0000  -0.0000  -0.0000  -0.0000
    -0.0000  -0.0000  -0.0000  -0.0000  -0.0000  -0.0000

          k = 0.0000 0.1000 0.4749 (  5387 PWs)   bands (ev):

   -79.3814 -79.3814 -79.3807 -79.3807 -46.2316 -46.2316 -46.2265 -46.2265
   -32.8015 -32.8015 -32.7918 -32.7918 -32.6395 -32.6395 -32.6221 -32.6221
    -6.2268  -6.2268  -5.6198  -5.6198  -5.3310  -5.3310  -5.2548  -5.2548
     5.3794   5.3794   5.5367   5.5367   6.4327   6.4327   6.7147   6.7147
     6.9150   6.9150   7.4188   7.4188   7.5220   7.5220   8.7158   8.7158
     8.8682   8.8682   9.5751   9.5751   9.8030   9.8030  10.0587  10.0587
    11.8456  11.8456  12.1707  12.1707  12.2274  12.2274  13.4456  13.4456
    13.6568  13.6568  14.2179  14.2179  15.9644  15.9644  16.1759  16.1759
    16.6464  16.6464  17.5955  17.5955  20.9488  20.9488

     occupation numbers 
     1.0000   1.0000   1.0000   1.0000   1.0000   1.0000   1.0000   1.0000
     1.0000   1.0000   1.0000   1.0000   1.0000   1.0000   1.0000   1.0000
     1.0000   1.0000   1.0000   1.0000   1.0000   1.0000   1.0000   1.0000
     1.0000   1.0000   1.0000   1.0000   1.0000   1.0000   1.0000   1.0000
     1.0000   1.0000   1.0000   1.0000   1.0000   1.0000   1.0000   1.0000
     1.0000   1.0000   1.0000   1.0000   1.0000   1.0000   1.0000   1.0000
     1.0000   1.0000   1.0000   1.0000   1.0000   1.0000   1.0000   1.0000
     1.0001   1.0001  -0.0000  -0.0000  -0.0000  -0.0000  -0.0000  -0.0000
    -0.0000  -0.0000  -0.0000  -0.0000  -0.0000  -0.0000

          k = 0.0000 0.1000 0.6332 (  5373 PWs)   bands (ev):

   -79.3806 -79.3806 -79.3804 -79.3804 -46.2324 -46.2324 -46.2306 -46.2306
   -32.8154 -32.8154 -32.8057 -32.8057 -32.6367 -32.6367 -32.6278 -32.6278
    -5.8677  -5.8677  -5.6649  -5.6649  -5.4093  -5.4093  -5.3440  -5.3440
     5.6470   5.6470   5.8239   5.8239   6.2995   6.2995   6.6739   6.6739
     7.2328   7.2328   7.2706   7.2706   8.1675   8.1675   8.2409   8.2409
     8.4114   8.4114   9.1050   9.1050   9.8296   9.8296   9.9156   9.9156
    11.8363  11.8363  12.0071  12.0071  12.6778  12.6778  13.2370  13.2370
    13.9992  13.9992  14.2267  14.2267  15.8209  15.8209  15.9303  15.9303
    16.7696  16.7696  17.1048  17.1048  22.3087  22.3087

     occupation numbers 
     1.0000   1.0000   1.0000   1.0000   1.0000   1.0000   1.0000   1.0000
     1.0000   1.0000   1.0000   1.0000   1.0000   1.0000   1.0000   1.0000
     1.0000   1.0000   1.0000   1.0000   1.0000   1.0000   1.0000   1.0000
     1.0000   1.0000   1.0000   1.0000   1.0000   1.0000   1.0000   1.0000
     1.0000   1.0000   1.0000   1.0000   1.0000   1.0000   1.0000   1.0000
     1.0000   1.0000   1.0000   1.0000   1.0000   1.0000   1.0000   1.0000
     1.0000   1.0000   1.0000   1.0000   1.0000   1.0000   1.0000   1.0000
    -0.0078  -0.0078  -0.0000  -0.0000  -0.0000  -0.0000  -0.0000  -0.0000
    -0.0000  -0.0000  -0.0000  -0.0000  -0.0000  -0.0000

          k = 0.0000 0.2000 0.0000 (  5363 PWs)   bands (ev):

   -79.3833 -79.3833 -79.3822 -79.3822 -46.2250 -46.2250 -46.2163 -46.2163
   -32.7627 -32.7627 -32.7539 -32.7539 -32.6219 -32.6219 -32.6104 -32.6104
    -6.9253  -6.9253  -5.9071  -5.9071  -5.1302  -5.1302  -4.9382  -4.9382
     4.6388   4.6388   4.8000   4.8000   6.0870   6.0870   6.1770   6.1770
     6.5091   6.5091   8.4062   8.4062   8.5612   8.5612   8.7546   8.7546
     9.7134   9.7134   9.9930   9.9930  10.6488  10.6488  11.4546  11.4546
    11.5640  11.5640  11.6599  11.6599  11.9153  11.9153  12.0590  12.0590
    12.4786  12.4786  14.7652  14.7652  15.2858  15.2858  17.5407  17.5407
    17.8448  17.8448  18.5605  18.5605  19.0924  19.0924

     occupation numbers 
     1.0000   1.0000   1.0000   1.0000   1.0000   1.0000   1.0000   1.0000
     1.0000   1.0000   1.0000   1.0000   1.0000   1.0000   1.0000   1.0000
     1.0000   1.0000   1.0000   1.0000   1.0000   1.0000   1.0000   1.0000
     1.0000   1.0000   1.0000   1.0000   1.0000   1.0000   1.0000   1.0000
     1.0000   1.0000   1.0000   1.0000   1.0000   1.0000   1.0000   1.0000
     1.0000   1.0000   1.0000   1.0000   1.0000   1.0000   1.0000   1.0000
     1.0000   1.0000   1.0000   1.0000   1.0000   1.0000   1.0000   1.0000
     1.0000   1.0000  -0.0000  -0.0000  -0.0000  -0.0000  -0.0000  -0.0000
    -0.0000  -0.0000  -0.0000  -0.0000  -0.0000  -0.0000

          k = 0.0000 0.2000 0.1583 (  5366 PWs)   bands (ev):

   -79.3830 -79.3830 -79.3820 -79.3820 -46.2260 -46.2260 -46.2179 -46.2179
   -32.7674 -32.7674 -32.7587 -32.7587 -32.6269 -32.6269 -32.6125 -32.6125
    -6.8182  -6.8182  -5.8410  -5.8410  -5.1809  -5.1809  -5.0005  -5.0005
     4.7740   4.7740   4.9161   4.9161   6.1563   6.1563   6.2210   6.2210
     6.6747   6.6747   8.1663   8.1663   8.4981   8.4981   8.7662   8.7662
     9.1037   9.1037  10.0165  10.0165  10.3010  10.3010  11.2936  11.2936
    11.5983  11.5983  11.9933  11.9933  12.0300  12.0300  12.3476  12.3476
    12.6970  12.6970  14.6711  14.6711  15.4789  15.4789  17.1615  17.1615
    17.4837  17.4837  18.8935  18.8935  19.0047  19.0047

     occupation numbers 
     1.0000   1.0000   1.0000   1.0000   1.0000   1.0000   1.0000   1.0000
     1.0000   1.0000   1.0000   1.0000   1.0000   1.0000   1.0000   1.0000
     1.0000   1.0000   1.0000   1.0000   1.0000   1.0000   1.0000   1.0000
     1.0000   1.0000   1.0000   1.0000   1.0000   1.0000   1.0000   1.0000
     1.0000   1.0000   1.0000   1.0000   1.0000   1.0000   1.0000   1.0000
     1.0000   1.0000   1.0000   1.0000   1.0000   1.0000   1.0000   1.0000
     1.0000   1.0000   1.0000   1.0000   1.0000   1.0000   1.0000   1.0000
     1.0000   1.0000  -0.0000  -0.0000  -0.0000  -0.0000  -0.0000  -0.0000
    -0.0000  -0.0000  -0.0000  -0.0000  -0.0000  -0.0000

          k = 0.0000 0.2000 0.3166 (  5383 PWs)   bands (ev):

   -79.3822 -79.3822 -79.3814 -79.3814 -46.2286 -46.2286 -46.2219 -46.2219
   -32.7836 -32.7836 -32.7709 -32.7709 -32.6359 -32.6359 -32.6172 -32.6172
    -6.5311  -6.5311  -5.6910  -5.6910  -5.2988  -5.2988  -5.1495  -5.1495
     5.1318   5.1318   5.2208   5.2208   6.3528   6.3528   6.4145   6.4145
     7.0582   7.0582   7.3468   7.3468   7.9351   7.9351   8.8305   8.8305
     9.1557   9.1557   9.6032   9.6032   9.7022   9.7022  11.0837  11.0837
    11.4286  11.4286  12.2001  12.2001  12.3590  12.3590  12.8486  12.8486
    13.2058  13.2058  14.4246  14.4246  15.8997  15.8997  16.4481  16.4481
    16.9027  16.9027  18.4651  18.4651  19.9302  19.9302

     occupation numbers 
     1.0000   1.0000   1.0000   1.0000   1.0000   1.0000   1.0000   1.0000
     1.0000   1.0000   1.0000   1.0000   1.0000   1.0000   1.0000   1.0000
     1.0000   1.0000   1.0000   1.0000   1.0000   1.0000   1.0000   1.0000
     1.0000   1.0000   1.0000   1.0000   1.0000   1.0000   1.0000   1.0000
     1.0000   1.0000   1.0000   1.0000   1.0000   1.0000   1.0000   1.0000
     1.0000   1.0000   1.0000   1.0000   1.0000   1.0000   1.0000   1.0000
     1.0000   1.0000   1.0000   1.0000   1.0000   1.0000   1.0000   1.0000
     1.0000   1.0000  -0.0000  -0.0000  -0.0000  -0.0000  -0.0000  -0.0000
    -0.0000  -0.0000  -0.0000  -0.0000  -0.0000  -0.0000

          k = 0.0000 0.2000 0.4749 (  5381 PWs)   bands (ev):

   -79.3813 -79.3813 -79.3808 -79.3808 -46.2312 -46.2312 -46.2268 -46.2268
   -32.8050 -32.8050 -32.7881 -32.7881 -32.6399 -32.6399 -32.6221 -32.6221
    -6.1644  -6.1644  -5.6162  -5.6162  -5.3830  -5.3830  -5.2816  -5.2816
     5.5083   5.5083   5.6276   5.6276   6.2586   6.2586   6.6501   6.6501
     7.0302   7.0302   7.2387   7.2387   7.7281   7.7281   8.7012   8.7012
     8.9924   8.9924   9.4078   9.4078   9.6028   9.6028  10.3462  10.3462
    11.7493  11.7493  12.1198  12.1198  12.2960  12.2960  13.1609  13.1609
    13.7244  13.7244  14.2414  14.2414  15.7824  15.7824  15.9237  15.9237
    16.8904  16.8904  17.9611  17.9611  21.1490  21.1490

     occupation numbers 
     1.0000   1.0000   1.0000   1.0000   1.0000   1.0000   1.0000   1.0000
     1.0000   1.0000   1.0000   1.0000   1.0000   1.0000   1.0000   1.0000
     1.0000   1.0000   1.0000   1.0000   1.0000   1.0000   1.0000   1.0000
     1.0000   1.0000   1.0000   1.0000   1.0000   1.0000   1.0000   1.0000
     1.0000   1.0000   1.0000   1.0000   1.0000   1.0000   1.0000   1.0000
     1.0000   1.0000   1.0000   1.0000   1.0000   1.0000   1.0000   1.0000
     1.0000   1.0000   1.0000   1.0000   1.0000   1.0000   1.0000   1.0000
     1.0072   1.0072  -0.0000  -0.0000  -0.0000  -0.0000  -0.0000  -0.0000
    -0.0000  -0.0000  -0.0000  -0.0000  -0.0000  -0.0000

          k = 0.0000 0.2000 0.6332 (  5369 PWs)   bands (ev):

   -79.3806 -79.3806 -79.3804 -79.3804 -46.2324 -46.2324 -46.2306 -46.2306
   -32.8197 -32.8197 -32.8016 -32.8016 -32.6387 -32.6387 -32.6258 -32.6258
    -5.8643  -5.8643  -5.7013  -5.7013  -5.4130  -5.4130  -5.3003  -5.3003
     5.6776   5.6776   5.8308   5.8308   6.0637   6.0637   6.3922   6.3922
     7.4065   7.4065   7.5289   7.5289   8.1408   8.1408   8.4153   8.4153
     8.6629   8.6629   9.3488   9.3488   9.7062   9.7062   9.7477   9.7477
    11.8568  11.8568  11.9911  11.9911  12.3759  12.3759  12.9158  12.9158
    14.0224  14.0224  14.3465  14.3465  15.4881  15.4881  15.6072  15.6072
    17.2238  17.2238  17.6004  17.6004  22.3946  22.3946

     occupation numbers 
     1.0000   1.0000   1.0000   1.0000   1.0000   1.0000   1.0000   1.0000
     1.0000   1.0000   1.0000   1.0000   1.0000   1.0000   1.0000   1.0000
     1.0000   1.0000   1.0000   1.0000   1.0000   1.0000   1.0000   1.0000
     1.0000   1.0000   1.0000   1.0000   1.0000   1.0000   1.0000   1.0000
     1.0000   1.0000   1.0000   1.0000   1.0000   1.0000   1.0000   1.0000
     1.0000   1.0000   1.0000   1.0000   1.0000   1.0000   1.0000   1.0000
     1.0000   1.0000   1.0000   1.0000   1.0000   1.0000   1.0000   1.0000
    -0.0022  -0.0022  -0.0000  -0.0000  -0.0000  -0.0000  -0.0000  -0.0000
    -0.0000  -0.0000  -0.0000  -0.0000  -0.0000  -0.0000

          k = 0.0000 0.3000 0.0000 (  5376 PWs)   bands (ev):

   -79.3832 -79.3832 -79.3824 -79.3824 -46.2238 -46.2238 -46.2175 -46.2175
   -32.7605 -32.7605 -32.7541 -32.7541 -32.6215 -32.6215 -32.6131 -32.6131
    -6.7498  -6.7498  -5.9372  -5.9372  -5.2482  -5.2482  -5.0550  -5.0550
     5.0265   5.0265   5.1210   5.1210   6.1394   6.1394   6.2070   6.2070
     6.8201   6.8201   7.9254   7.9254   8.0920   8.0920   8.6370   8.6370
     9.2537   9.2537   9.3470   9.3470  10.6053  10.6053  11.2609  11.2609
    11.8271  11.8271  11.9386  11.9386  12.1601  12.1601  12.3376  12.3376
    12.8194  12.8194  14.4430  14.4430  15.9293  15.9293  17.4019  17.4019
    17.6522  17.6522  18.6573  18.6573  19.2562  19.2562

     occupation numbers 
     1.0000   1.0000   1.0000   1.0000   1.0000   1.0000   1.0000   1.0000
     1.0000   1.0000   1.0000   1.0000   1.0000   1.0000   1.0000   1.0000
     1.0000   1.0000   1.0000   1.0000   1.0000   1.0000   1.0000   1.0000
     1.0000   1.0000   1.0000   1.0000   1.0000   1.0000   1.0000   1.0000
     1.0000   1.0000   1.0000   1.0000   1.0000   1.0000   1.0000   1.0000
     1.0000   1.0000   1.0000   1.0000   1.0000   1.0000   1.0000   1.0000
     1.0000   1.0000   1.0000   1.0000   1.0000   1.0000   1.0000   1.0000
     1.0000   1.0000  -0.0000  -0.0000  -0.0000  -0.0000  -0.0000  -0.0000
    -0.0000  -0.0000  -0.0000  -0.0000  -0.0000  -0.0000

          k = 0.0000 0.3000 0.1583 (  5375 PWs)   bands (ev):

   -79.3829 -79.3829 -79.3821 -79.3821 -46.2249 -46.2249 -46.2190 -46.2190
   -32.7673 -32.7673 -32.7571 -32.7571 -32.6266 -32.6266 -32.6148 -32.6148
    -6.6485  -6.6485  -5.8599  -5.8599  -5.3012  -5.3012  -5.1095  -5.1095
     5.1361   5.1361   5.2400   5.2400   6.1889   6.1889   6.2389   6.2389
     6.9717   6.9717   8.0372   8.0372   8.0852   8.0852   8.2996   8.2996
     8.5931   8.5931   9.5600   9.5600  10.4733  10.4733  11.1647  11.1647
    11.8065  11.8065  12.0660  12.0660  12.3124  12.3124  12.5506  12.5506
    12.9750  12.9750  14.3647  14.3647  16.0459  16.0459  16.9865  16.9865
    17.3021  17.3021  18.5873  18.5873  19.6366  19.6366

     occupation numbers 
     1.0000   1.0000   1.0000   1.0000   1.0000   1.0000   1.0000   1.0000
     1.0000   1.0000   1.0000   1.0000   1.0000   1.0000   1.0000   1.0000
     1.0000   1.0000   1.0000   1.0000   1.0000   1.0000   1.0000   1.0000
     1.0000   1.0000   1.0000   1.0000   1.0000   1.0000   1.0000   1.0000
     1.0000   1.0000   1.0000   1.0000   1.0000   1.0000   1.0000   1.0000
     1.0000   1.0000   1.0000   1.0000   1.0000   1.0000   1.0000   1.0000
     1.0000   1.0000   1.0000   1.0000   1.0000   1.0000   1.0000   1.0000
     1.0000   1.0000  -0.0000  -0.0000  -0.0000  -0.0000  -0.0000  -0.0000
    -0.0000  -0.0000  -0.0000  -0.0000  -0.0000  -0.0000

          k = 0.0000 0.3000 0.3166 (  5371 PWs)   bands (ev):

   -79.3821 -79.3821 -79.3815 -79.3815 -46.2277 -46.2277 -46.2228 -46.2228
   -32.7856 -32.7856 -32.7681 -32.7681 -32.6356 -32.6356 -32.6187 -32.6187
    -6.3829  -6.3829  -5.6747  -5.6747  -5.4284  -5.4284  -5.2346  -5.2346
     5.4104   5.4104   5.5197   5.5197   6.3585   6.3585   6.4469   6.4469
     7.0215   7.0215   7.4911   7.4911   7.6265   7.6265   8.3949   8.3949
     8.6996   8.6996   9.4919   9.4919   9.9942   9.9942  10.9745  10.9745
    11.5489  11.5489  12.3746  12.3746  12.4961  12.4961  12.8122  12.8122
    13.3509  13.3509  14.2144  14.2144  16.0786  16.0786  16.2433  16.2433
    16.9389  16.9389  18.4068  18.4068  20.4619  20.4619

     occupation numbers 
     1.0000   1.0000   1.0000   1.0000   1.0000   1.0000   1.0000   1.0000
     1.0000   1.0000   1.0000   1.0000   1.0000   1.0000   1.0000   1.0000
     1.0000   1.0000   1.0000   1.0000   1.0000   1.0000   1.0000   1.0000
     1.0000   1.0000   1.0000   1.0000   1.0000   1.0000   1.0000   1.0000
     1.0000   1.0000   1.0000   1.0000   1.0000   1.0000   1.0000   1.0000
     1.0000   1.0000   1.0000   1.0000   1.0000   1.0000   1.0000   1.0000
     1.0000   1.0000   1.0000   1.0000   1.0000   1.0000   1.0000   1.0000
     1.0000   1.0000  -0.0000  -0.0000  -0.0000  -0.0000  -0.0000  -0.0000
    -0.0000  -0.0000  -0.0000  -0.0000  -0.0000  -0.0000

          k = 0.0000 0.3000 0.4749 (  5364 PWs)   bands (ev):

   -79.3812 -79.3812 -79.3808 -79.3808 -46.2308 -46.2308 -46.2273 -46.2273
   -32.8079 -32.8079 -32.7851 -32.7851 -32.6402 -32.6402 -32.6221 -32.6221
    -6.0672  -6.0672  -5.6274  -5.6274  -5.4509  -5.4509  -5.3153  -5.3153
     5.6780   5.6780   5.7750   5.7750   6.1391   6.1391   6.5277   6.5277
     6.9822   6.9822   7.1859   7.1859   7.9902   7.9902   8.6190   8.6190
     9.0106   9.0106   9.1919   9.1919   9.6230   9.6230  10.6897  10.6897
    11.4017  11.4017  12.2288  12.2288  12.3360  12.3360  12.8528  12.8528
    13.7951  13.7951  14.2498  14.2498  15.5034  15.5034  15.7253  15.7253
    17.2863  17.2863  18.2037  18.2037  21.4944  21.4944

     occupation numbers 
     1.0000   1.0000   1.0000   1.0000   1.0000   1.0000   1.0000   1.0000
     1.0000   1.0000   1.0000   1.0000   1.0000   1.0000   1.0000   1.0000
     1.0000   1.0000   1.0000   1.0000   1.0000   1.0000   1.0000   1.0000
     1.0000   1.0000   1.0000   1.0000   1.0000   1.0000   1.0000   1.0000
     1.0000   1.0000   1.0000   1.0000   1.0000   1.0000   1.0000   1.0000
     1.0000   1.0000   1.0000   1.0000   1.0000   1.0000   1.0000   1.0000
     1.0000   1.0000   1.0000   1.0000   1.0000   1.0000   1.0000   1.0000
     1.0245   1.0245  -0.0000  -0.0000  -0.0000  -0.0000  -0.0000  -0.0000
    -0.0000  -0.0000  -0.0000  -0.0000  -0.0000  -0.0000

          k = 0.0000 0.3000 0.6332 (  5367 PWs)   bands (ev):

   -79.3806 -79.3806 -79.3805 -79.3805 -46.2325 -46.2325 -46.2306 -46.2306
   -32.8232 -32.8232 -32.7983 -32.7983 -32.6406 -32.6406 -32.6240 -32.6240
    -5.8566  -5.8566  -5.7455  -5.7455  -5.4050  -5.4050  -5.2630  -5.2630
     5.6347   5.6347   5.7189   5.7189   6.0565   6.0565   6.2401   6.2401
     7.4500   7.4500   7.8294   7.8294   8.0521   8.0521   8.5639   8.5639
     9.0785   9.0785   9.2823   9.2823   9.5738   9.5738   9.9914   9.9914
    11.7118  11.7118  11.9553  11.9553  12.0478  12.0478  12.5443  12.5443
    14.0726  14.0726  14.4277  14.4277  15.2240  15.2240  15.3539  15.3539
    17.6820  17.6820  18.0240  18.0240  22.5451  22.5451

     occupation numbers 
     1.0000   1.0000   1.0000   1.0000   1.0000   1.0000   1.0000   1.0000
     1.0000   1.0000   1.0000   1.0000   1.0000   1.0000   1.0000   1.0000
     1.0000   1.0000   1.0000   1.0000   1.0000   1.0000   1.0000   1.0000
     1.0000   1.0000   1.0000   1.0000   1.0000   1.0000   1.0000   1.0000
     1.0000   1.0000   1.0000   1.0000   1.0000   1.0000   1.0000   1.0000
     1.0000   1.0000   1.0000   1.0000   1.0000   1.0000   1.0000   1.0000
     1.0000   1.0000   1.0000   1.0000   1.0000   1.0000   1.0000   1.0000
    -0.0001  -0.0001  -0.0000  -0.0000  -0.0000  -0.0000  -0.0000  -0.0000
    -0.0000  -0.0000  -0.0000  -0.0000  -0.0000  -0.0000

          k = 0.0000 0.4000 0.0000 (  5370 PWs)   bands (ev):

   -79.3830 -79.3830 -79.3826 -79.3826 -46.2223 -46.2223 -46.2190 -46.2190
   -32.7581 -32.7581 -32.7548 -32.7548 -32.6205 -32.6205 -32.6161 -32.6161
    -6.5256  -6.5256  -6.0626  -6.0626  -5.3029  -5.3029  -5.1696  -5.1696
     5.4170   5.4170   5.4756   5.4756   6.1976   6.1976   6.2325   6.2325
     7.1969   7.1969   7.5479   7.5479   7.5811   7.5811   8.5269   8.5269
     8.6627   8.6627   9.0057   9.0057  10.6741  10.6741  11.0370  11.0370
    12.0184  12.0184  12.1123  12.1123  12.3597  12.3597  12.5061  12.5061
    13.2152  13.2152  14.0552  14.0552  16.6451  16.6451  17.3008  17.3008
    17.4780  17.4780  18.1010  18.1010  20.0226  20.0226

     occupation numbers 
     1.0000   1.0000   1.0000   1.0000   1.0000   1.0000   1.0000   1.0000
     1.0000   1.0000   1.0000   1.0000   1.0000   1.0000   1.0000   1.0000
     1.0000   1.0000   1.0000   1.0000   1.0000   1.0000   1.0000   1.0000
     1.0000   1.0000   1.0000   1.0000   1.0000   1.0000   1.0000   1.0000
     1.0000   1.0000   1.0000   1.0000   1.0000   1.0000   1.0000   1.0000
     1.0000   1.0000   1.0000   1.0000   1.0000   1.0000   1.0000   1.0000
     1.0000   1.0000   1.0000   1.0000   1.0000   1.0000   1.0000   1.0000
     1.0000   1.0000  -0.0002  -0.0002  -0.0000  -0.0000  -0.0000  -0.0000
    -0.0000  -0.0000  -0.0000  -0.0000  -0.0000  -0.0000

          k = 0.0000 0.4000 0.1583 (  5370 PWs)   bands (ev):

   -79.3827 -79.3827 -79.3823 -79.3823 -46.2235 -46.2235 -46.2204 -46.2204
   -32.7672 -32.7672 -32.7559 -32.7559 -32.6261 -32.6261 -32.6170 -32.6170
    -6.4313  -6.4313  -5.9774  -5.9774  -5.3550  -5.3550  -5.2175  -5.2175
     5.5187   5.5187   5.6135   5.6135   6.1886   6.1886   6.2348   6.2348
     7.3052   7.3052   7.6543   7.6543   7.7869   7.7869   8.1064   8.1064
     8.2314   8.2314   9.0256   9.0256  10.6679  10.6679  11.0214  11.0214
    11.9624  11.9624  12.0784  12.0784  12.5676  12.5676  12.7303  12.7303
    13.2701  13.2701  14.0102  14.0102  16.5776  16.5776  16.8977  16.8977
    17.2054  17.2054  18.1115  18.1115  20.3808  20.3808

     occupation numbers 
     1.0000   1.0000   1.0000   1.0000   1.0000   1.0000   1.0000   1.0000
     1.0000   1.0000   1.0000   1.0000   1.0000   1.0000   1.0000   1.0000
     1.0000   1.0000   1.0000   1.0000   1.0000   1.0000   1.0000   1.0000
     1.0000   1.0000   1.0000   1.0000   1.0000   1.0000   1.0000   1.0000
     1.0000   1.0000   1.0000   1.0000   1.0000   1.0000   1.0000   1.0000
     1.0000   1.0000   1.0000   1.0000   1.0000   1.0000   1.0000   1.0000
     1.0000   1.0000   1.0000   1.0000   1.0000   1.0000   1.0000   1.0000
     1.0000   1.0000  -0.0045  -0.0045  -0.0000  -0.0000  -0.0000  -0.0000
    -0.0000  -0.0000  -0.0000  -0.0000  -0.0000  -0.0000

          k = 0.0000 0.4000 0.3166 (  5378 PWs)   bands (ev):

   -79.3820 -79.3820 -79.3817 -79.3817 -46.2267 -46.2267 -46.2239 -46.2239
   -32.7867 -32.7867 -32.7662 -32.7662 -32.6353 -32.6353 -32.6200 -32.6200
    -6.1921  -6.1921  -5.7710  -5.7710  -5.4766  -5.4766  -5.3210  -5.3210
     5.7354   5.7354   5.8533   5.8533   6.3420   6.3420   6.4793   6.4793
     6.8831   6.8831   7.1348   7.1348   7.9653   7.9653   8.1094   8.1094
     8.3543   8.3543   9.1505   9.1505  10.2850  10.2850  10.7389  10.7389
    11.8551  11.8551  12.2970  12.2970  12.6330  12.6330  12.8936  12.8936
    13.4740  13.4740  14.0202  14.0202  15.9744  15.9744  16.1480  16.1480
    17.2948  17.2948  18.1501  18.1501  21.1208  21.1208

     occupation numbers 
     1.0000   1.0000   1.0000   1.0000   1.0000   1.0000   1.0000   1.0000
     1.0000   1.0000   1.0000   1.0000   1.0000   1.0000   1.0000   1.0000
     1.0000   1.0000   1.0000   1.0000   1.0000   1.0000   1.0000   1.0000
     1.0000   1.0000   1.0000   1.0000   1.0000   1.0000   1.0000   1.0000
     1.0000   1.0000   1.0000   1.0000   1.0000   1.0000   1.0000   1.0000
     1.0000   1.0000   1.0000   1.0000   1.0000   1.0000   1.0000   1.0000
     1.0000   1.0000   1.0000   1.0000   1.0000   1.0000   1.0000   1.0000
     1.0000   1.0000  -0.0025  -0.0025  -0.0000  -0.0000  -0.0000  -0.0000
    -0.0000  -0.0000  -0.0000  -0.0000  -0.0000  -0.0000

          k = 0.0000 0.4000 0.4749 (  5369 PWs)   bands (ev):

   -79.3811 -79.3811 -79.3809 -79.3809 -46.2302 -46.2302 -46.2279 -46.2279
   -32.8098 -32.8098 -32.7831 -32.7831 -32.6405 -32.6405 -32.6221 -32.6221
    -5.9453  -5.9453  -5.6942  -5.6942  -5.4882  -5.4882  -5.3459  -5.3459
     5.8395   5.8395   5.9258   5.9258   6.1019   6.1019   6.3509   6.3509
     6.9008   6.9008   7.2174   7.2174   8.1290   8.1290   8.5929   8.5929
     8.8229   8.8229   9.1146   9.1146   9.8917   9.8917  10.6826  10.6826
    11.3747  11.3747  12.1104  12.1104  12.3623  12.3623  12.6998  12.6998
    13.8412  13.8412  14.2609  14.2609  15.3487  15.3487  15.5178  15.5178
    17.7007  17.7007  18.2376  18.2376  21.9681  21.9681

     occupation numbers 
     1.0000   1.0000   1.0000   1.0000   1.0000   1.0000   1.0000   1.0000
     1.0000   1.0000   1.0000   1.0000   1.0000   1.0000   1.0000   1.0000
     1.0000   1.0000   1.0000   1.0000   1.0000   1.0000   1.0000   1.0000
     1.0000   1.0000   1.0000   1.0000   1.0000   1.0000   1.0000   1.0000
     1.0000   1.0000   1.0000   1.0000   1.0000   1.0000   1.0000   1.0000
     1.0000   1.0000   1.0000   1.0000   1.0000   1.0000   1.0000   1.0000
     1.0000   1.0000   1.0000   1.0000   1.0000   1.0000   1.0000   1.0000
     0.7535   0.7535  -0.0000  -0.0000  -0.0000  -0.0000  -0.0000  -0.0000
    -0.0000  -0.0000  -0.0000  -0.0000  -0.0000  -0.0000

          k = 0.0000 0.4000 0.6332 (  5368 PWs)   bands (ev):

   -79.3806 -79.3806 -79.3805 -79.3805 -46.2325 -46.2325 -46.2306 -46.2306
   -32.8254 -32.8254 -32.7963 -32.7963 -32.6418 -32.6418 -32.6227 -32.6227
    -5.8424  -5.8424  -5.7867  -5.7867  -5.3952  -5.3952  -5.2387  -5.2387
     5.5411   5.5411   5.6020   5.6020   6.1436   6.1436   6.2138   6.2138
     7.4511   7.4511   7.9455   7.9455   8.1776   8.1776   8.6913   8.6913
     8.9699   8.9699   9.1090   9.1090   9.9319   9.9319  10.4775  10.4775
    11.2597  11.2597  11.6720  11.6720  11.9707  11.9707  12.3380  12.3380
    14.1121  14.1121  14.4701  14.4701  15.0821  15.0821  15.1718  15.1718
    18.0439  18.0439  18.2869  18.2869  22.7727  22.7728

     occupation numbers 
     1.0000   1.0000   1.0000   1.0000   1.0000   1.0000   1.0000   1.0000
     1.0000   1.0000   1.0000   1.0000   1.0000   1.0000   1.0000   1.0000
     1.0000   1.0000   1.0000   1.0000   1.0000   1.0000   1.0000   1.0000
     1.0000   1.0000   1.0000   1.0000   1.0000   1.0000   1.0000   1.0000
     1.0000   1.0000   1.0000   1.0000   1.0000   1.0000   1.0000   1.0000
     1.0000   1.0000   1.0000   1.0000   1.0000   1.0000   1.0000   1.0000
     1.0000   1.0000   1.0000   1.0000   1.0000   1.0000   1.0000   1.0000
    -0.0000  -0.0000  -0.0000  -0.0000  -0.0000  -0.0000  -0.0000  -0.0000
    -0.0000  -0.0000  -0.0000  -0.0000  -0.0000  -0.0000

          k = 0.0000-0.5000 0.0000 (  5380 PWs)   bands (ev):

   -79.3828 -79.3828 -79.3828 -79.3828 -46.2207 -46.2207 -46.2207 -46.2207
   -32.7561 -32.7561 -32.7561 -32.7561 -32.6186 -32.6186 -32.6186 -32.6186
    -6.2802  -6.2802  -6.2802  -6.2802  -5.2633  -5.2633  -5.2633  -5.2633
     5.6296   5.6296   5.6296   5.6296   6.2398   6.2398   6.2398   6.2398
     7.2635   7.2635   7.2635   7.2635   7.8915   7.8915   7.8915   7.8915
     8.7706   8.7706   8.7706   8.7706  10.8284  10.8284  10.8284  10.8284
    12.1237  12.1237  12.1237  12.1237  12.5046  12.5046  12.5046  12.5046
    13.6372  13.6372  13.6372  13.6372  17.2193  17.2193  17.2193  17.2193
    17.5177  17.5177  17.5177  17.5177  20.7716  20.7716

     occupation numbers 
     1.0000   1.0000   1.0000   1.0000   1.0000   1.0000   1.0000   1.0000
     1.0000   1.0000   1.0000   1.0000   1.0000   1.0000   1.0000   1.0000
     1.0000   1.0000   1.0000   1.0000   1.0000   1.0000   1.0000   1.0000
     1.0000   1.0000   1.0000   1.0000   1.0000   1.0000   1.0000   1.0000
     1.0000   1.0000   1.0000   1.0000   1.0000   1.0000   1.0000   1.0000
     1.0000   1.0000   1.0000   1.0000   1.0000   1.0000   1.0000   1.0000
     1.0000   1.0000   1.0000   1.0000   1.0000   1.0000   1.0000   1.0000
     1.0000   1.0000   1.0000   1.0000  -0.0000  -0.0000  -0.0000  -0.0000
    -0.0000  -0.0000  -0.0000  -0.0000  -0.0000  -0.0000

          k = 0.0000-0.5000 0.1583 (  5368 PWs)   bands (ev):

   -79.3825 -79.3825 -79.3825 -79.3825 -46.2223 -46.2223 -46.2216 -46.2216
   -32.7671 -32.7671 -32.7555 -32.7555 -32.6258 -32.6258 -32.6179 -32.6179
    -6.2046  -6.2046  -6.1785  -6.1785  -5.3237  -5.3237  -5.2977  -5.2977
     5.7317   5.7317   5.8276   5.8276   6.1679   6.1679   6.1787   6.1787
     7.4749   7.4749   7.5241   7.5241   7.7090   7.7090   7.7275   7.7275
     8.4812   8.4812   8.5982   8.5982  10.8412  10.8412  10.8662  10.8662
    12.0428  12.0428  12.0585  12.0585  12.6727  12.6727  12.7976  12.7976
    13.5159  13.5159  13.7326  13.7326  16.7045  16.7045  16.9120  16.9120
    17.5260  17.5260  17.5950  17.5950  21.0971  21.1202

     occupation numbers 
     1.0000   1.0000   1.0000   1.0000   1.0000   1.0000   1.0000   1.0000
     1.0000   1.0000   1.0000   1.0000   1.0000   1.0000   1.0000   1.0000
     1.0000   1.0000   1.0000   1.0000   1.0000   1.0000   1.0000   1.0000
     1.0000   1.0000   1.0000   1.0000   1.0000   1.0000   1.0000   1.0000
     1.0000   1.0000   1.0000   1.0000   1.0000   1.0000   1.0000   1.0000
     1.0000   1.0000   1.0000   1.0000   1.0000   1.0000   1.0000   1.0000
     1.0000   1.0000   1.0000   1.0000   1.0000   1.0000   1.0000   1.0000
     1.0000   1.0000   1.0105   1.0105  -0.0000  -0.0000  -0.0000  -0.0000
    -0.0000  -0.0000  -0.0000  -0.0000  -0.0000  -0.0000

          k = 0.0000-0.5000 0.3166 (  5392 PWs)   bands (ev):

   -79.3818 -79.3818 -79.3818 -79.3818 -46.2259 -46.2259 -46.2246 -46.2246
   -32.7871 -32.7871 -32.7655 -32.7655 -32.6351 -32.6351 -32.6205 -32.6205
    -5.9940  -5.9940  -5.9580  -5.9580  -5.4438  -5.4438  -5.3801  -5.3801
     5.9468   5.9468   6.0265   6.0265   6.3366   6.3366   6.4147   6.4147
     6.8856   6.8856   6.9054   6.9054   7.9785   7.9785   7.9900   7.9900
     8.6586   8.6586   8.6909   8.6909  10.5240  10.5240  10.5345  10.5345
    12.0752  12.0752  12.1463  12.1463  12.6947  12.6947  12.9364  12.9364
    13.5210  13.5210  13.9385  13.9385  15.9348  15.9348  16.0780  16.0780
    17.7227  17.7227  17.7833  17.7833  21.7872  21.7959

     occupation numbers 
     1.0000   1.0000   1.0000   1.0000   1.0000   1.0000   1.0000   1.0000
     1.0000   1.0000   1.0000   1.0000   1.0000   1.0000   1.0000   1.0000
     1.0000   1.0000   1.0000   1.0000   1.0000   1.0000   1.0000   1.0000
     1.0000   1.0000   1.0000   1.0000   1.0000   1.0000   1.0000   1.0000
     1.0000   1.0000   1.0000   1.0000   1.0000   1.0000   1.0000   1.0000
     1.0000   1.0000   1.0000   1.0000   1.0000   1.0000   1.0000   1.0000
     1.0000   1.0000   1.0000   1.0000   1.0000   1.0000   1.0000   1.0000
     1.0000   1.0000  -0.0333  -0.0333  -0.0000  -0.0000  -0.0000  -0.0000
    -0.0000  -0.0000  -0.0000  -0.0000  -0.0000  -0.0000

          k = 0.0000-0.5000 0.4749 (  5380 PWs)   bands (ev):

   -79.3810 -79.3810 -79.3810 -79.3810 -46.2299 -46.2299 -46.2282 -46.2282
   -32.8104 -32.8104 -32.7825 -32.7825 -32.6406 -32.6406 -32.6221 -32.6221
    -5.8153  -5.8153  -5.8113  -5.8113  -5.4927  -5.4927  -5.3591  -5.3591
     5.9355   5.9355   5.9612   5.9612   6.1671   6.1671   6.1982   6.1982
     6.9185   6.9185   7.1685   7.1685   8.3194   8.3194   8.3418   8.3418
     8.9259   8.9259   9.0165   9.0165  10.2569  10.2569  10.3059  10.3059
    11.7240  11.7240  11.7681  11.7681  12.3887  12.3887  12.6832  12.6832
    13.8562  13.8562  14.2682  14.2682  15.3410  15.3410  15.3901  15.3901
    17.9809  17.9809  18.1156  18.1156  22.5202  22.5206

     occupation numbers 
     1.0000   1.0000   1.0000   1.0000   1.0000   1.0000   1.0000   1.0000
     1.0000   1.0000   1.0000   1.0000   1.0000   1.0000   1.0000   1.0000
     1.0000   1.0000   1.0000   1.0000   1.0000   1.0000   1.0000   1.0000
     1.0000   1.0000   1.0000   1.0000   1.0000   1.0000   1.0000   1.0000
     1.0000   1.0000   1.0000   1.0000   1.0000   1.0000   1.0000   1.0000
     1.0000   1.0000   1.0000   1.0000   1.0000   1.0000   1.0000   1.0000
     1.0000   1.0000   1.0000   1.0000   1.0000   1.0000   1.0000   1.0000
     0.5806   0.5806  -0.0000  -0.0000  -0.0000  -0.0000  -0.0000  -0.0000
    -0.0000  -0.0000  -0.0000  -0.0000  -0.0000  -0.0000

          k = 0.0000-0.5000 0.6332 (  5362 PWs)   bands (ev):

   -79.3805 -79.3805 -79.3805 -79.3805 -46.2325 -46.2325 -46.2306 -46.2306
   -32.8262 -32.8262 -32.7956 -32.7956 -32.6422 -32.6422 -32.6223 -32.6223
    -5.8202  -5.8202  -5.8188  -5.8188  -5.3910  -5.3910  -5.2304  -5.2304
     5.5076   5.5076   5.5491   5.5491   6.2015   6.2015   6.2032   6.2032
[...]
     1.0000   1.0000   1.0000   1.0000   1.0000   1.0000   1.0000   1.0000
     1.0000   1.0000   1.0000   1.0000  -0.0000  -0.0000  -0.0000  -0.0000
    -0.0000  -0.0000  -0.0000  -0.0000  -0.0000  -0.0000

          k = 0.4000-0.5000 0.4749 (  5364 PWs)   bands (ev):

   -79.3810 -79.3810 -79.3810 -79.3810 -46.2293 -46.2293 -46.2288 -46.2288
   -32.8012 -32.8012 -32.7926 -32.7926 -32.6341 -32.6341 -32.6285 -32.6285
    -5.8187  -5.8187  -5.8187  -5.8187  -5.4134  -5.4134  -5.3702  -5.3702
     5.3813   5.3813   5.3994   5.3994   6.1282   6.1282   6.1901   6.1901
     7.1638   7.1638   7.2055   7.2055   8.5795   8.5795   8.6241   8.6241
     9.3370   9.3370   9.3556   9.3556  10.2375  10.2375  10.2510  10.2510
    12.0082  12.0082  12.0158  12.0158  12.6015  12.6015  12.8172  12.8172
    13.3173  13.3173  13.5596  13.5596  16.1820  16.1820  16.2230  16.2230
    17.2032  17.2032  17.2150  17.2150  22.8657  22.8675

     occupation numbers 
     1.0000   1.0000   1.0000   1.0000   1.0000   1.0000   1.0000   1.0000
     1.0000   1.0000   1.0000   1.0000   1.0000   1.0000   1.0000   1.0000
     1.0000   1.0000   1.0000   1.0000   1.0000   1.0000   1.0000   1.0000
     1.0000   1.0000   1.0000   1.0000   1.0000   1.0000   1.0000   1.0000
     1.0000   1.0000   1.0000   1.0000   1.0000   1.0000   1.0000   1.0000
     1.0000   1.0000   1.0000   1.0000   1.0000   1.0000   1.0000   1.0000
     1.0000   1.0000   1.0000   1.0000   1.0000   1.0000   1.0000   1.0000
     1.0000   1.0000   1.0000   1.0000  -0.0000  -0.0000  -0.0000  -0.0000
    -0.0000  -0.0000  -0.0000  -0.0000  -0.0000  -0.0000

          k = 0.4000-0.5000 0.6332 (  5368 PWs)   bands (ev):

   -79.3805 -79.3805 -79.3805 -79.3805 -46.2318 -46.2318 -46.2312 -46.2312
   -32.8155 -32.8155 -32.8061 -32.8061 -32.6358 -32.6358 -32.6297 -32.6297
    -5.6893  -5.6893  -5.6527  -5.6527  -5.4931  -5.4931  -5.4069  -5.4069
     5.6687   5.6687   5.7168   5.7168   6.0738   6.0738   6.2638   6.2638
     6.7969   6.7969   6.9025   6.9025   8.2663   8.2663   8.3411   8.3411
     9.5909   9.5909   9.5927   9.5927  10.5862  10.5862  10.5941  10.5941
    11.9213  11.9213  11.9473  11.9473  12.3749  12.3749  12.6304  12.6304
    13.4470  13.4470  13.6936  13.6936  15.9157  15.9157  15.9208  15.9208
    17.2158  17.2158  17.2622  17.2622  23.0953  23.1011

     occupation numbers 
     1.0000   1.0000   1.0000   1.0000   1.0000   1.0000   1.0000   1.0000
     1.0000   1.0000   1.0000   1.0000   1.0000   1.0000   1.0000   1.0000
     1.0000   1.0000   1.0000   1.0000   1.0000   1.0000   1.0000   1.0000
     1.0000   1.0000   1.0000   1.0000   1.0000   1.0000   1.0000   1.0000
     1.0000   1.0000   1.0000   1.0000   1.0000   1.0000   1.0000   1.0000
     1.0000   1.0000   1.0000   1.0000   1.0000   1.0000   1.0000   1.0000
     1.0000   1.0000   1.0000   1.0000   1.0000   1.0000   1.0000   1.0000
     1.0000   1.0000   1.0012   1.0012  -0.0000  -0.0000  -0.0000  -0.0000
    -0.0000  -0.0000  -0.0000  -0.0000  -0.0000  -0.0000

          k =-0.5000-0.5000 0.0000 (  5412 PWs)   bands (ev):

   -79.3828 -79.3828 -79.3828 -79.3828 -46.2207 -46.2207 -46.2207 -46.2207
   -32.7589 -32.7589 -32.7589 -32.7589 -32.6162 -32.6162 -32.6162 -32.6162
    -6.4118  -6.4118  -6.4118  -6.4118  -5.0359  -5.0359  -5.0359  -5.0359
     4.4001   4.4001   4.4001   4.4001   6.0117   6.0117   6.0117   6.0117
     8.7365   8.7365   8.7365   8.7365   8.7785   8.7785   8.7785   8.7785
     9.5947   9.5947   9.5947   9.5947  10.3604  10.3604  10.3604  10.3604
    11.1216  11.1216  11.1216  11.1216  11.7471  11.7471  11.7471  11.7471
    14.0531  14.0531  14.0531  14.0531  16.2371  16.2371  16.2371  16.2371
    17.9272  17.9272  17.9272  17.9272  22.3951  22.3951

     occupation numbers 
     1.0000   1.0000   1.0000   1.0000   1.0000   1.0000   1.0000   1.0000
     1.0000   1.0000   1.0000   1.0000   1.0000   1.0000   1.0000   1.0000
     1.0000   1.0000   1.0000   1.0000   1.0000   1.0000   1.0000   1.0000
     1.0000   1.0000   1.0000   1.0000   1.0000   1.0000   1.0000   1.0000
     1.0000   1.0000   1.0000   1.0000   1.0000   1.0000   1.0000   1.0000
     1.0000   1.0000   1.0000   1.0000   1.0000   1.0000   1.0000   1.0000
     1.0000   1.0000   1.0000   1.0000   1.0000   1.0000   1.0000   1.0000
    -0.0003  -0.0003  -0.0003  -0.0003  -0.0000  -0.0000  -0.0000  -0.0000
    -0.0000  -0.0000  -0.0000  -0.0000  -0.0000  -0.0000

          k =-0.5000-0.5000 0.1583 (  5404 PWs)   bands (ev):

   -79.3825 -79.3825 -79.3825 -79.3825 -46.2220 -46.2220 -46.2220 -46.2220
   -32.7637 -32.7637 -32.7637 -32.7637 -32.6198 -32.6198 -32.6198 -32.6198
    -6.3224  -6.3224  -6.3224  -6.3224  -5.0933  -5.0933  -5.0933  -5.0933
     4.5316   4.5316   4.5316   4.5316   6.0126   6.0126   6.0126   6.0126
     8.7721   8.7721   8.7721   8.7721   8.9518   8.9518   8.9518   8.9518
     9.1192   9.1192   9.1192   9.1192   9.9750   9.9750   9.9750   9.9750
    11.4812  11.4812  11.4812  11.4812  12.0610  12.0610  12.0610  12.0610
    13.9203  13.9203  13.9203  13.9203  16.4022  16.4022  16.4022  16.4022
    17.6380  17.6380  17.6380  17.6380  22.6086  22.6086

     occupation numbers 
     1.0000   1.0000   1.0000   1.0000   1.0000   1.0000   1.0000   1.0000
     1.0000   1.0000   1.0000   1.0000   1.0000   1.0000   1.0000   1.0000
     1.0000   1.0000   1.0000   1.0000   1.0000   1.0000   1.0000   1.0000
     1.0000   1.0000   1.0000   1.0000   1.0000   1.0000   1.0000   1.0000
     1.0000   1.0000   1.0000   1.0000   1.0000   1.0000   1.0000   1.0000
     1.0000   1.0000   1.0000   1.0000   1.0000   1.0000   1.0000   1.0000
     1.0000   1.0000   1.0000   1.0000   1.0000   1.0000   1.0000   1.0000
    -0.0012  -0.0012  -0.0012  -0.0012  -0.0000  -0.0000  -0.0000  -0.0000
    -0.0000  -0.0000  -0.0000  -0.0000  -0.0000  -0.0000

          k =-0.5000-0.5000 0.3166 (  5380 PWs)   bands (ev):

   -79.3818 -79.3818 -79.3818 -79.3818 -46.2253 -46.2253 -46.2253 -46.2253
   -32.7778 -32.7778 -32.7778 -32.7778 -32.6267 -32.6267 -32.6267 -32.6267
    -6.0908  -6.0908  -6.0908  -6.0908  -5.2350  -5.2350  -5.2350  -5.2350
     4.8889   4.8889   4.8889   4.8889   6.0484   6.0484   6.0484   6.0484
     8.0671   8.0671   8.0671   8.0671   8.9599   8.9599   8.9599   8.9599
     9.1572   9.1572   9.1572   9.1572   9.7904   9.7904   9.7904   9.7904
    11.8538  11.8538  11.8538  11.8538  12.5783  12.5783  12.5783  12.5783
    13.5771  13.5771  13.5771  13.5771  16.6313  16.6313  16.6313  16.6313
    17.1297  17.1297  17.1297  17.1297  22.8874  22.8874

     occupation numbers 
     1.0000   1.0000   1.0000   1.0000   1.0000   1.0000   1.0000   1.0000
     1.0000   1.0000   1.0000   1.0000   1.0000   1.0000   1.0000   1.0000
     1.0000   1.0000   1.0000   1.0000   1.0000   1.0000   1.0000   1.0000
     1.0000   1.0000   1.0000   1.0000   1.0000   1.0000   1.0000   1.0000
     1.0000   1.0000   1.0000   1.0000   1.0000   1.0000   1.0000   1.0000
     1.0000   1.0000   1.0000   1.0000   1.0000   1.0000   1.0000   1.0000
     1.0000   1.0000   1.0000   1.0000   1.0000   1.0000   1.0000   1.0000
     1.0000   1.0000   1.0000   1.0000  -0.0000  -0.0000  -0.0000  -0.0000
    -0.0000  -0.0000  -0.0000  -0.0000  -0.0000  -0.0000

          k =-0.5000-0.5000 0.4749 (  5340 PWs)   bands (ev):

   -79.3810 -79.3810 -79.3810 -79.3810 -46.2291 -46.2291 -46.2291 -46.2291
   -32.7970 -32.7970 -32.7970 -32.7970 -32.6313 -32.6313 -32.6313 -32.6313
    -5.8193  -5.8193  -5.8193  -5.8193  -5.3881  -5.3881  -5.3881  -5.3881
     5.3477   5.3477   5.3477   5.3477   6.1410   6.1410   6.1410   6.1410
     7.2190   7.2190   7.2190   7.2190   8.5968   8.5968   8.5968   8.5968
     9.3837   9.3837   9.3837   9.3837  10.2690  10.2690  10.2690  10.2690
    11.9765  11.9765  11.9765  11.9765  12.8639  12.8639  12.8639  12.8639
    13.2938  13.2938  13.2938  13.2938  16.3527  16.3527  16.3527  16.3527
    17.0555  17.0555  17.0555  17.0555  23.0689  23.0689

     occupation numbers 
     1.0000   1.0000   1.0000   1.0000   1.0000   1.0000   1.0000   1.0000
     1.0000   1.0000   1.0000   1.0000   1.0000   1.0000   1.0000   1.0000
     1.0000   1.0000   1.0000   1.0000   1.0000   1.0000   1.0000   1.0000
     1.0000   1.0000   1.0000   1.0000   1.0000   1.0000   1.0000   1.0000
     1.0000   1.0000   1.0000   1.0000   1.0000   1.0000   1.0000   1.0000
     1.0000   1.0000   1.0000   1.0000   1.0000   1.0000   1.0000   1.0000
     1.0000   1.0000   1.0000   1.0000   1.0000   1.0000   1.0000   1.0000
     1.0000   1.0000   1.0000   1.0000  -0.0000  -0.0000  -0.0000  -0.0000
    -0.0000  -0.0000  -0.0000  -0.0000  -0.0000  -0.0000

          k =-0.5000-0.5000 0.6332 (  5372 PWs)   bands (ev):

   -79.3805 -79.3805 -79.3805 -79.3805 -46.2315 -46.2315 -46.2315 -46.2315
   -32.8108 -32.8108 -32.8108 -32.8108 -32.6328 -32.6328 -32.6328 -32.6328
    -5.6469  -5.6469  -5.6469  -5.6469  -5.4731  -5.4731  -5.4731  -5.4731
     5.6897   5.6897   5.6897   5.6897   6.2284   6.2284   6.2284   6.2284
     6.7291   6.7291   6.7291   6.7291   8.3046   8.3046   8.3046   8.3046
     9.6208   9.6208   9.6208   9.6208  10.6205  10.6205  10.6205  10.6205
    11.9498  11.9498  11.9498  11.9498  12.6596  12.6596  12.6596  12.6596
    13.4221  13.4221  13.4221  13.4221  16.1059  16.1059  16.1059  16.1059
    17.0331  17.0331  17.0331  17.0331  23.0766  23.0766

     occupation numbers 
     1.0000   1.0000   1.0000   1.0000   1.0000   1.0000   1.0000   1.0000
     1.0000   1.0000   1.0000   1.0000   1.0000   1.0000   1.0000   1.0000
     1.0000   1.0000   1.0000   1.0000   1.0000   1.0000   1.0000   1.0000
     1.0000   1.0000   1.0000   1.0000   1.0000   1.0000   1.0000   1.0000
     1.0000   1.0000   1.0000   1.0000   1.0000   1.0000   1.0000   1.0000
     1.0000   1.0000   1.0000   1.0000   1.0000   1.0000   1.0000   1.0000
     1.0000   1.0000   1.0000   1.0000   1.0000   1.0000   1.0000   1.0000
     1.0000   1.0000   1.0000   1.0000  -0.0000  -0.0000  -0.0000  -0.0000
    -0.0000  -0.0000  -0.0000  -0.0000  -0.0000  -0.0000

     the Fermi energy is    13.8627 ev

!    total energy              =    -553.08039459 Ry
     estimated scf accuracy    <          1.3E-11 Ry
     smearing contrib. (-TS)   =       0.00002161 Ry
     internal energy E=F+TS    =    -553.08041620 Ry

     The total energy is F=E-TS. E is the sum of the following terms:
     one-electron contribution =    -190.91142617 Ry
     hartree contribution      =     122.73171903 Ry
     xc contribution           =     -69.91469854 Ry
     ewald contribution        =    -414.98601052 Ry

     convergence has been achieved in  10 iterations

     Forces acting on atoms (cartesian axes, Ry/au):

     atom    1 type  2   force =     0.00000000    0.00000000    0.00000000
     atom    2 type  2   force =     0.00000000    0.00000000    0.00000000
     atom    3 type  1   force =     0.00061199   -0.00061199    0.00000000
     atom    4 type  1   force =    -0.00061199   -0.00061199    0.00000000
     atom    5 type  1   force =     0.00061199    0.00061199    0.00000000
     atom    6 type  1   force =    -0.00061199    0.00061199    0.00000000
     The non-local contrib.  to forces
     atom    1 type  2   force =     0.00000000    0.00000000    0.00000000
     atom    2 type  2   force =     0.00000000    0.00000000   -0.00000000
     atom    3 type  1   force =    -0.05407838    0.05407838    0.00000000
     atom    4 type  1   force =     0.05407838    0.05407838   -0.00000000
     atom    5 type  1   force =    -0.05407838   -0.05407838   -0.00000000
     atom    6 type  1   force =     0.05407838   -0.05407838    0.00000000
     The ionic contribution  to forces
     atom    1 type  2   force =    -0.00000000   -0.00000000    0.00000000
     atom    2 type  2   force =     0.00000000    0.00000000   -0.00000000
     atom    3 type  1   force =     1.42937233   -1.42937233    0.00000000
     atom    4 type  1   force =    -1.42937233   -1.42937233   -0.00000000
     atom    5 type  1   force =     1.42937233    1.42937233   -0.00000000
     atom    6 type  1   force =    -1.42937233    1.42937233    0.00000000
     The local contribution  to forces
     atom    1 type  2   force =     0.00000000    0.00000000   -0.00000000
     atom    2 type  2   force =     0.00000000    0.00000000    0.00000000
     atom    3 type  1   force =    -1.37468134    1.37468134    0.00000000
     atom    4 type  1   force =     1.37468134    1.37468134   -0.00000000
     atom    5 type  1   force =    -1.37468134   -1.37468134   -0.00000000
     atom    6 type  1   force =     1.37468134   -1.37468134    0.00000000
     The core correction contribution to forces
     atom    1 type  2   force =     0.00000000    0.00000000    0.00000000
     atom    2 type  2   force =     0.00000000    0.00000000    0.00000000
     atom    3 type  1   force =     0.00000000    0.00000000    0.00000000
     atom    4 type  1   force =     0.00000000    0.00000000    0.00000000
     atom    5 type  1   force =     0.00000000    0.00000000    0.00000000
     atom    6 type  1   force =     0.00000000    0.00000000    0.00000000
     The Hubbard contrib.    to forces
     atom    1 type  2   force =     0.00000000    0.00000000    0.00000000
     atom    2 type  2   force =     0.00000000    0.00000000    0.00000000
     atom    3 type  1   force =     0.00000000    0.00000000    0.00000000
     atom    4 type  1   force =     0.00000000    0.00000000    0.00000000
     atom    5 type  1   force =     0.00000000    0.00000000    0.00000000
     atom    6 type  1   force =     0.00000000    0.00000000    0.00000000
     The SCF correction term to forces
     atom    1 type  2   force =     0.00000000    0.00000000    0.00000000
     atom    2 type  2   force =    -0.00000000   -0.00000000   -0.00000000
     atom    3 type  1   force =    -0.00000062    0.00000062   -0.00000000
     atom    4 type  1   force =     0.00000062    0.00000062   -0.00000000
     atom    5 type  1   force =    -0.00000062   -0.00000062   -0.00000000
     atom    6 type  1   force =     0.00000062   -0.00000062   -0.00000000

     Total force =     0.001731     Total SCF correction =     0.000002


     Computing stress (Cartesian axis) and pressure

          total   stress  (Ry/bohr**3)                   (kbar)     P=      -20.42
  -0.00011923   0.00000000   0.00000000          -17.54        0.00        0.00
   0.00000000  -0.00011923   0.00000000            0.00      -17.54        0.00
   0.00000000   0.00000000  -0.00017807            0.00        0.00      -26.20

     kinetic stress (kbar)  48454.84      0.00      0.00
                                0.00  48454.84      0.00
                                0.00      0.00  47525.36

     local   stress (kbar) -12686.20     -0.00      0.00
                               -0.00 -12686.20     -0.00
                                0.00     -0.00 -44400.96

     nonloc. stress (kbar)  14527.53      0.00      0.00
                                0.00  14527.53      0.00
                                0.00      0.00  14741.36

     hartree stress (kbar)   9610.71     -0.00     -0.00
                               -0.00   9610.71     -0.00
                               -0.00     -0.00  21378.98

     exc-cor stress (kbar)  -7288.20      0.00      0.00
                                0.00  -7288.20     -0.00
                                0.00     -0.00  -7263.48

     corecor stress (kbar)      0.00      0.00      0.00
                                0.00      0.00      0.00
                                0.00      0.00      0.00

     ewald   stress (kbar) -52636.21     -0.00     -0.00
                               -0.00 -52636.21     -0.00
                               -0.00     -0.00 -32007.45

     hubbard stress (kbar)      0.00      0.00      0.00
                                0.00      0.00      0.00
                                0.00      0.00      0.00

     DFT-D   stress (kbar)      0.00      0.00      0.00
                                0.00      0.00      0.00
                                0.00      0.00      0.00

     XDM     stress (kbar)      0.00      0.00      0.00
                                0.00      0.00      0.00
                                0.00      0.00      0.00

     dft-nl  stress (kbar)      0.00      0.00      0.00
                                0.00      0.00      0.00
                                0.00      0.00      0.00

     TS-vdW  stress (kbar)      0.00      0.00      0.00
                                0.00      0.00      0.00
                                0.00      0.00      0.00


                                0.00      0.00      0.00
                                0.00      0.00      0.00


                                0.00      0.00      0.00


     Writing all to output data dir tmp/espresso.save/
 
     init_run     :     10.54s CPU      5.46s WALL (       1 calls)
     electrons    :    357.23s CPU    183.13s WALL (       1 calls)
     forces       :     17.46s CPU      8.95s WALL (       1 calls)
     stress       :     26.40s CPU     13.32s WALL (       1 calls)

     Called by init_run:
     wfcinit      :     10.48s CPU      5.40s WALL (       1 calls)
     wfcinit:atom :      0.03s CPU      0.02s WALL (     105 calls)
     wfcinit:wfcr :     10.20s CPU      5.24s WALL (     105 calls)
     potinit      :      0.02s CPU      0.01s WALL (       1 calls)
     hinit0       :      0.03s CPU      0.03s WALL (       1 calls)

     Called by electrons:
     c_bands      :    327.41s CPU    167.79s WALL (      10 calls)
     sum_band     :     29.65s CPU     15.22s WALL (      10 calls)
     v_of_rho     :      0.05s CPU      0.03s WALL (      11 calls)
     v_h          :      0.00s CPU      0.00s WALL (      11 calls)
     v_xc         :      0.04s CPU      0.02s WALL (      11 calls)
     mix_rho      :      0.05s CPU      0.02s WALL (      10 calls)

     Called by c_bands:
     init_us_2    :      0.89s CPU      0.47s WALL (    2415 calls)
     init_us_2:cp :      0.88s CPU      0.47s WALL (    2415 calls)
     cegterg      :    302.28s CPU    154.96s WALL (    1050 calls)

     Called by sum_band:
     sum_band:wei :      0.19s CPU      0.10s WALL (      10 calls)
     sum_band:loo :     29.43s CPU     15.11s WALL (      10 calls)
     sum_band:buf :      0.17s CPU      0.09s WALL (    1050 calls)
     sum_band:ini :      0.29s CPU      0.15s WALL (    1050 calls)

     Called by *egterg:
     cdiaghg      :     43.63s CPU     22.17s WALL (    3496 calls)
     cegterg:over :     18.93s CPU      9.62s WALL (    2446 calls)
     cegterg:upda :     14.85s CPU      7.56s WALL (    2446 calls)
     cegterg:last :     26.10s CPU     13.28s WALL (    2100 calls)
     cdiaghg:chol :      2.04s CPU      1.04s WALL (    3496 calls)
     cdiaghg:inve :      0.31s CPU      0.16s WALL (    3496 calls)
     cdiaghg:para :      4.55s CPU      2.32s WALL (    6992 calls)
     h_psi        :    201.02s CPU    103.54s WALL (    3601 calls)
     g_psi        :      0.29s CPU      0.15s WALL (    2446 calls)

     Called by h_psi:
     h_psi:calbec :     24.26s CPU     12.71s WALL (    3601 calls)
     vloc_psi     :    141.49s CPU     72.88s WALL (    3601 calls)
     add_vuspsi   :     34.81s CPU     17.72s WALL (    3601 calls)

     General routines
     calbec       :     29.62s CPU     15.50s WALL (    4126 calls)
     fft          :      0.06s CPU      0.03s WALL (     150 calls)
     ffts         :      0.01s CPU      0.01s WALL (      40 calls)
     fftw         :    160.15s CPU     82.46s WALL (  903352 calls)
 
     Parallel routines
 
     PWSCF        :   7m 3.84s CPU   3m40.11s WALL

 
   This run was terminated on:  11:28:32  10Apr2022            

=------------------------------------------------------------------------------=
   JOB DONE.
=------------------------------------------------------------------------------=
