
     Program PWSCF v.7.0 starts on 10Apr2022 at  9:42:15 

     This program is part of the open-source Quantum ESPRESSO suite
     for quantum simulation of materials; please cite
         "P. Giannozzi et al., J. Phys.:Condens. Matter 21 395502 (2009);
         "P. Giannozzi et al., J. Phys.:Condens. Matter 29 465901 (2017);
         "P. Giannozzi et al., J. Chem. Phys. 152 154105 (2020);
          URL http://www.quantum-espresso.org", 
     in publications or presentations arising from this work. More details at
     http://www.quantum-espresso.org/quote

     Parallel version (MPI & OpenMP), running on      64 processor cores
     Number of MPI processes:                32
     Threads/MPI process:                     2

     MPI processes distributed on     1 nodes
     R & G space division:  proc/nbgrp/npool/nimage =      32
     231418 MiB available memory on the printing compute node when the environment starts
 
     Reading input from kpoints_552.pwi
Warning: card &CELL ignored
Warning: card / ignored

     Current dimensions of program PWSCF are:
     Max number of different atomic species (ntypx) = 10
     Max number of k-points (npk) =  40000
     Max angular momentum in pseudopotentials (lmaxx) =  4

     Subspace diagonalization in iterative solution of the eigenvalue problem:
     one sub-group per band group will be used
     scalapack distributed-memory algorithm (size of sub-group:  5*  5 procs)

 
     Parallelization info
     --------------------
     sticks:   dense  smooth     PW     G-vecs:    dense   smooth      PW
     Min          58      58     17                 1342     1342     207
     Max          59      59     18                 1345     1345     210
     Sum        1885    1885    545                42999    42999    6675
 
     Using Slab Decomposition
 

     Title: 
     IrO2 Unit Cell                                                             


     bravais-lattice index     =            6
     lattice parameter (alat)  =       8.5888  a.u.
     unit-cell volume          =     444.6868 (a.u.)^3
     number of atoms/cell      =            6
     number of atomic types    =            2
     number of electrons       =        58.00
     number of Kohn-Sham states=           70
     kinetic-energy cutoff     =      80.0000  Ry
     charge density cutoff     =     320.0000  Ry
     scf convergence threshold =      1.0E-09
     mixing beta               =       0.7000
     number of iterations used =            8  plain     mixing
     Exchange-correlation= PBE
                           (   1   4   3   4   0   0   0)
     Non magnetic calculation with spin-orbit


     celldm(1)=   8.588800  celldm(2)=   0.000000  celldm(3)=   0.701870
     celldm(4)=   0.000000  celldm(5)=   0.000000  celldm(6)=   0.000000

     crystal axes: (cart. coord. in units of alat)
               a(1) = (   1.000000   0.000000   0.000000 )  
               a(2) = (   0.000000   1.000000   0.000000 )  
               a(3) = (   0.000000   0.000000   0.701870 )  

     reciprocal axes: (cart. coord. in units 2 pi/alat)
               b(1) = (  1.000000  0.000000  0.000000 )  
               b(2) = (  0.000000  1.000000  0.000000 )  
               b(3) = (  0.000000  0.000000  1.424765 )  


     PseudoPot. # 1 for O  read from file:
     ../../XX_PSEUDO/O_ONCV_PBE_fr.upf
     MD5 check sum: 59c925217d3b58c6d762355590b68b09
     Pseudo is Norm-conserving, Zval =  6.0
     Generated using ONCVPSP code by D. R. Hamann
     Using radial grid of  936 points,  6 beta functions with: 
                l(1) =   0
                l(2) =   0
                l(3) =   1
                l(4) =   1
                l(5) =   1
                l(6) =   1

     PseudoPot. # 2 for Ir read from file:
     ../../XX_PSEUDO/Ir_ONCV_PBE_fr.upf
     MD5 check sum: 924e909c4146afa09f62ee3401806954
     Pseudo is Norm-conserving, Zval = 17.0
     Generated using ONCVPSP code by D. R. Hamann
     Using radial grid of 1310 points, 14 beta functions with: 
                l(1) =   0
                l(2) =   0
                l(3) =   1
                l(4) =   1
                l(5) =   1
                l(6) =   1
                l(7) =   2
                l(8) =   2
                l(9) =   2
               l(10) =   2
               l(11) =   3
               l(12) =   3
               l(13) =   3
               l(14) =   3

     atomic species   valence    mass     pseudopotential
        O              6.00    15.99900     O ( 1.00)
        Ir            17.00   192.21700     Ir( 1.00)

     16 Sym. Ops., with inversion, found ( 8 have fractional translation)


                                    s                        frac. trans.

      isym =  1     identity                                     

 cryst.   s( 1) = (     1          0          0      )
                  (     0          1          0      )
                  (     0          0          1      )

 cart.    s( 1) = (  1.0000000  0.0000000  0.0000000 )
                  (  0.0000000  1.0000000  0.0000000 )
                  (  0.0000000  0.0000000  1.0000000 )


      isym =  2     180 deg rotation - cart. axis [0,0,1]        

 cryst.   s( 2) = (    -1          0          0      )
                  (     0         -1          0      )
                  (     0          0          1      )

 cart.    s( 2) = ( -1.0000000  0.0000000  0.0000000 )
                  (  0.0000000 -1.0000000  0.0000000 )
                  (  0.0000000  0.0000000  1.0000000 )


      isym =  3     180 deg rotation - cart. axis [0,1,0]        

 cryst.   s( 3) = (    -1          0          0      )    f =(  0.5000000 )
                  (     0          1          0      )       ( -0.5000000 )
                  (     0          0         -1      )       (  0.5000000 )

 cart.    s( 3) = ( -1.0000000  0.0000000  0.0000000 )    f =(  0.5000000 )
                  (  0.0000000  1.0000000  0.0000000 )       ( -0.5000000 )
                  (  0.0000000  0.0000000 -1.0000000 )       (  0.3509351 )


      isym =  4     180 deg rotation - cart. axis [1,0,0]        

 cryst.   s( 4) = (     1          0          0      )    f =( -0.5000000 )
                  (     0         -1          0      )       (  0.5000000 )
                  (     0          0         -1      )       (  0.5000000 )

 cart.    s( 4) = (  1.0000000  0.0000000  0.0000000 )    f =( -0.5000000 )
                  (  0.0000000 -1.0000000  0.0000000 )       (  0.5000000 )
                  (  0.0000000  0.0000000 -1.0000000 )       (  0.3509351 )


      isym =  5     180 deg rotation - cart. axis [1,1,0]        

 cryst.   s( 5) = (     0          1          0      )
                  (     1          0          0      )
                  (     0          0         -1      )

 cart.    s( 5) = (  0.0000000  1.0000000  0.0000000 )
                  (  1.0000000  0.0000000  0.0000000 )
                  (  0.0000000  0.0000000 -1.0000000 )


      isym =  6     180 deg rotation - cart. axis [1,-1,0]       

 cryst.   s( 6) = (     0         -1          0      )
                  (    -1          0          0      )
                  (     0          0         -1      )

 cart.    s( 6) = (  0.0000000 -1.0000000  0.0000000 )
                  ( -1.0000000  0.0000000  0.0000000 )
                  (  0.0000000  0.0000000 -1.0000000 )


      isym =  7      90 deg rotation - cart. axis [0,0,-1]       

 cryst.   s( 7) = (     0         -1          0      )    f =( -0.5000000 )
                  (     1          0          0      )       (  0.5000000 )
                  (     0          0          1      )       ( -0.5000000 )

 cart.    s( 7) = (  0.0000000  1.0000000  0.0000000 )    f =( -0.5000000 )
                  ( -1.0000000  0.0000000  0.0000000 )       (  0.5000000 )
                  (  0.0000000  0.0000000  1.0000000 )       ( -0.3509351 )


      isym =  8      90 deg rotation - cart. axis [0,0,1]        

 cryst.   s( 8) = (     0          1          0      )    f =(  0.5000000 )
                  (    -1          0          0      )       ( -0.5000000 )
                  (     0          0          1      )       ( -0.5000000 )

 cart.    s( 8) = (  0.0000000 -1.0000000  0.0000000 )    f =(  0.5000000 )
                  (  1.0000000  0.0000000  0.0000000 )       ( -0.5000000 )
                  (  0.0000000  0.0000000  1.0000000 )       ( -0.3509351 )


      isym =  9     inversion                                    

 cryst.   s( 9) = (    -1          0          0      )
                  (     0         -1          0      )
                  (     0          0         -1      )

 cart.    s( 9) = ( -1.0000000  0.0000000  0.0000000 )
                  (  0.0000000 -1.0000000  0.0000000 )
                  (  0.0000000  0.0000000 -1.0000000 )


      isym = 10     inv. 180 deg rotation - cart. axis [0,0,1]   

 cryst.   s(10) = (     1          0          0      )
                  (     0          1          0      )
                  (     0          0         -1      )

 cart.    s(10) = (  1.0000000  0.0000000  0.0000000 )
                  (  0.0000000  1.0000000  0.0000000 )
                  (  0.0000000  0.0000000 -1.0000000 )


      isym = 11     inv. 180 deg rotation - cart. axis [0,1,0]   

 cryst.   s(11) = (     1          0          0      )    f =( -0.5000000 )
                  (     0         -1          0      )       (  0.5000000 )
                  (     0          0          1      )       ( -0.5000000 )

 cart.    s(11) = (  1.0000000  0.0000000  0.0000000 )    f =( -0.5000000 )
                  (  0.0000000 -1.0000000  0.0000000 )       (  0.5000000 )
                  (  0.0000000  0.0000000  1.0000000 )       ( -0.3509351 )


      isym = 12     inv. 180 deg rotation - cart. axis [1,0,0]   

 cryst.   s(12) = (    -1          0          0      )    f =(  0.5000000 )
                  (     0          1          0      )       ( -0.5000000 )
                  (     0          0          1      )       ( -0.5000000 )

 cart.    s(12) = ( -1.0000000  0.0000000  0.0000000 )    f =(  0.5000000 )
                  (  0.0000000  1.0000000  0.0000000 )       ( -0.5000000 )
                  (  0.0000000  0.0000000  1.0000000 )       ( -0.3509351 )


      isym = 13     inv. 180 deg rotation - cart. axis [1,1,0]   

 cryst.   s(13) = (     0         -1          0      )
                  (    -1          0          0      )
                  (     0          0          1      )

 cart.    s(13) = (  0.0000000 -1.0000000  0.0000000 )
                  ( -1.0000000  0.0000000  0.0000000 )
                  (  0.0000000  0.0000000  1.0000000 )


      isym = 14     inv. 180 deg rotation - cart. axis [1,-1,0]  

 cryst.   s(14) = (     0          1          0      )
                  (     1          0          0      )
                  (     0          0          1      )

 cart.    s(14) = (  0.0000000  1.0000000  0.0000000 )
                  (  1.0000000  0.0000000  0.0000000 )
                  (  0.0000000  0.0000000  1.0000000 )


      isym = 15     inv.  90 deg rotation - cart. axis [0,0,-1]  

 cryst.   s(15) = (     0          1          0      )    f =(  0.5000000 )
                  (    -1          0          0      )       ( -0.5000000 )
                  (     0          0         -1      )       (  0.5000000 )

 cart.    s(15) = (  0.0000000 -1.0000000  0.0000000 )    f =(  0.5000000 )
                  (  1.0000000  0.0000000  0.0000000 )       ( -0.5000000 )
                  (  0.0000000  0.0000000 -1.0000000 )       (  0.3509351 )


      isym = 16     inv.  90 deg rotation - cart. axis [0,0,1]   

 cryst.   s(16) = (     0         -1          0      )    f =( -0.5000000 )
                  (     1          0          0      )       (  0.5000000 )
                  (     0          0         -1      )       (  0.5000000 )

 cart.    s(16) = (  0.0000000  1.0000000  0.0000000 )    f =( -0.5000000 )
                  ( -1.0000000  0.0000000  0.0000000 )       (  0.5000000 )
                  (  0.0000000  0.0000000 -1.0000000 )       (  0.3509351 )


     double point group D_4h(4/mmm)
     there are 14 classes and  4 irreducible representations
     the character table:

       E     -E    2C4   -2C4   C2    2C2' 2C2'' i     -i    2S4   -2S4   s_h 
                               -C2   -2C2' -2C2'                         -s_h 
G_6+   2.00 -2.00  1.41 -1.41  0.00  0.00  0.00  2.00 -2.00  1.41 -1.41  0.00
G_7+   2.00 -2.00 -1.41  1.41  0.00  0.00  0.00  2.00 -2.00 -1.41  1.41  0.00
G_6-   2.00 -2.00  1.41 -1.41  0.00  0.00  0.00 -2.00  2.00 -1.41  1.41  0.00
G_7-   2.00 -2.00 -1.41  1.41  0.00  0.00  0.00 -2.00  2.00  1.41 -1.41  0.00

        2s_v  2s_d
       -2s_v -2s_d
G_6+   0.00  0.00
G_7+   0.00  0.00
G_6-   0.00  0.00
G_7-   0.00  0.00

     the symmetry operations in each class and the name of the first element:

     E             1
          identity                                               
     -E           -1
          identity E                                             
     2C4           7    8
           90 deg rotation - cart. axis [0,0,-1]                 
     -2C4         -7   -8
           90 deg rotation - cart. axis [0,0,-1] E               
      C2  -C2      2   -2
          180 deg rotation - cart. axis [0,0,1]                  
      2C2'-2C2'    3   -3    4   -4
          180 deg rotation - cart. axis [0,1,0]                  
     2C2''-2C2'    5   -5   -6    6
          180 deg rotation - cart. axis [1,1,0]                  
     i             9
          inversion                                              
     -i           -9
          inversion E                                            
     2S4          15   16
          inv.  90 deg rotation - cart. axis [0,0,-1]            
     -2S4        -15  -16
          inv.  90 deg rotation - cart. axis [0,0,-1] E          
      s_h -s_h    10  -10
          inv. 180 deg rotation - cart. axis [0,0,1]             
      2s_v-2s_v   11  -11   12  -12
          inv. 180 deg rotation - cart. axis [0,1,0]             
      2s_d-2s_d   13  -13  -14   14
          inv. 180 deg rotation - cart. axis [1,1,0]             

   Cartesian axes

     site n.     atom                  positions (alat units)
         1           Ir  tau(   1) = (   0.0000000   0.0000000   0.0000000  )
         2           Ir  tau(   2) = (   0.5000000   0.5000000   0.3509351  )
         3           O   tau(   3) = (   0.1916000   0.8084000   0.3509351  )
         4           O   tau(   4) = (   0.3084000   0.3084000   0.0000000  )
         5           O   tau(   5) = (   0.6916000   0.6916000   0.0000000  )
         6           O   tau(   6) = (   0.8084000   0.1916000   0.3509351  )

   Crystallographic axes

     site n.     atom                  positions (cryst. coord.)
         1           Ir  tau(   1) = (  0.0000000  0.0000000  0.0000000  )
         2           Ir  tau(   2) = (  0.5000000  0.5000000  0.5000000  )
         3           O   tau(   3) = (  0.1916000  0.8084000  0.5000000  )
         4           O   tau(   4) = (  0.3084000  0.3084000  0.0000000  )
         5           O   tau(   5) = (  0.6916000  0.6916000  0.0000000  )
         6           O   tau(   6) = (  0.8084000  0.1916000  0.5000000  )

     number of k points=    12  Methfessel-Paxton smearing, width (Ry)=  0.0050
                       cart. coord. in units 2pi/alat
        k(    1) = (   0.0000000   0.0000000   0.0000000), wk =   0.0200000
        k(    2) = (   0.0000000   0.0000000  -0.7123824), wk =   0.0200000
        k(    3) = (   0.0000000   0.2000000   0.0000000), wk =   0.0800000
        k(    4) = (   0.0000000   0.2000000  -0.7123824), wk =   0.0800000
        k(    5) = (   0.0000000   0.4000000   0.0000000), wk =   0.0800000
        k(    6) = (   0.0000000   0.4000000  -0.7123824), wk =   0.0800000
        k(    7) = (   0.2000000   0.2000000   0.0000000), wk =   0.0800000
        k(    8) = (   0.2000000   0.2000000  -0.7123824), wk =   0.0800000
        k(    9) = (   0.2000000   0.4000000   0.0000000), wk =   0.1600000
        k(   10) = (   0.2000000   0.4000000  -0.7123824), wk =   0.1600000
        k(   11) = (   0.4000000   0.4000000   0.0000000), wk =   0.0800000
        k(   12) = (   0.4000000   0.4000000  -0.7123824), wk =   0.0800000

                       cryst. coord.
        k(    1) = (   0.0000000   0.0000000   0.0000000), wk =   0.0200000
        k(    2) = (   0.0000000   0.0000000  -0.5000000), wk =   0.0200000
        k(    3) = (   0.0000000   0.2000000   0.0000000), wk =   0.0800000
        k(    4) = (   0.0000000   0.2000000  -0.5000000), wk =   0.0800000
        k(    5) = (   0.0000000   0.4000000   0.0000000), wk =   0.0800000
        k(    6) = (   0.0000000   0.4000000  -0.5000000), wk =   0.0800000
        k(    7) = (   0.2000000   0.2000000   0.0000000), wk =   0.0800000
        k(    8) = (   0.2000000   0.2000000  -0.5000000), wk =   0.0800000
        k(    9) = (   0.2000000   0.4000000   0.0000000), wk =   0.1600000
        k(   10) = (   0.2000000   0.4000000  -0.5000000), wk =   0.1600000
        k(   11) = (   0.4000000   0.4000000   0.0000000), wk =   0.0800000
        k(   12) = (   0.4000000   0.4000000  -0.5000000), wk =   0.0800000

     Dense  grid:    42999 G-vectors     FFT dimensions: (  50,  50,  36)

     Dynamical RAM for                 wfc:       0.36 MB

     Dynamical RAM for     wfc (w. buffer):       4.64 MB

     Dynamical RAM for           str. fact:       0.04 MB

     Dynamical RAM for           local pot:       0.00 MB

     Dynamical RAM for          nlocal pot:       0.46 MB

     Dynamical RAM for                qrad:      20.10 MB

     Dynamical RAM for          rho,v,vnew:       0.70 MB

     Dynamical RAM for               rhoin:       0.23 MB

     Dynamical RAM for            rho*nmix:       1.31 MB

     Dynamical RAM for           G-vectors:       0.09 MB

     Dynamical RAM for          h,s,v(r/c):       0.04 MB

     Dynamical RAM for          <psi|beta>:       0.38 MB

     Dynamical RAM for                 psi:       0.71 MB

     Dynamical RAM for                hpsi:       0.71 MB

     Dynamical RAM for      wfcinit/wfcrot:       0.67 MB

     Estimated static dynamical RAM per process >      26.63 MB

     Estimated max dynamical RAM per process >      29.79 MB

     Estimated total dynamical RAM >     953.24 MB

     Initial potential from superposition of free atoms

     starting charge      57.9997, renormalised to      58.0000
     Starting wfcs are   72 randomized atomic wfcs

     total cpu time spent up to now is        0.8 secs

     Self-consistent Calculation

     iteration #  1     ecut=    80.00 Ry     beta= 0.70
     Davidson diagonalization with overlap

---- Real-time Memory Report at c_bands before calling an iterative solver
            76 MiB given to the printing process from OS
             0 MiB allocation reported by mallinfo(arena+hblkhd)
        229992 MiB available memory on the node where the printing process lives
------------------
     ethr =  1.00E-02,  avg # of iterations =  2.3

     total cpu time spent up to now is        2.8 secs

     total energy              =    -552.46679369 Ry
     estimated scf accuracy    <       1.18661666 Ry

     iteration #  2     ecut=    80.00 Ry     beta= 0.70
     Davidson diagonalization with overlap

---- Real-time Memory Report at c_bands before calling an iterative solver
            83 MiB given to the printing process from OS
             0 MiB allocation reported by mallinfo(arena+hblkhd)
        229841 MiB available memory on the node where the printing process lives
------------------
     ethr =  2.05E-03,  avg # of iterations =  2.2

     total cpu time spent up to now is        5.1 secs

     total energy              =    -552.30802084 Ry
     estimated scf accuracy    <       4.23514885 Ry

     iteration #  3     ecut=    80.00 Ry     beta= 0.70
     Davidson diagonalization with overlap

---- Real-time Memory Report at c_bands before calling an iterative solver
            85 MiB given to the printing process from OS
             0 MiB allocation reported by mallinfo(arena+hblkhd)
        229808 MiB available memory on the node where the printing process lives
------------------
     ethr =  2.05E-03,  avg # of iterations =  2.1

     total cpu time spent up to now is        7.2 secs

     total energy              =    -553.09826974 Ry
     estimated scf accuracy    <       0.03872008 Ry

     iteration #  4     ecut=    80.00 Ry     beta= 0.70
     Davidson diagonalization with overlap

---- Real-time Memory Report at c_bands before calling an iterative solver
            86 MiB given to the printing process from OS
             0 MiB allocation reported by mallinfo(arena+hblkhd)
        229800 MiB available memory on the node where the printing process lives
------------------
     ethr =  6.68E-05,  avg # of iterations =  3.6

     total cpu time spent up to now is        9.4 secs

     total energy              =    -553.10129404 Ry
     estimated scf accuracy    <       0.00645506 Ry

     iteration #  5     ecut=    80.00 Ry     beta= 0.70
     Davidson diagonalization with overlap

---- Real-time Memory Report at c_bands before calling an iterative solver
            87 MiB given to the printing process from OS
             0 MiB allocation reported by mallinfo(arena+hblkhd)
        229781 MiB available memory on the node where the printing process lives
------------------
     ethr =  1.11E-05,  avg # of iterations =  2.4

     total cpu time spent up to now is       11.3 secs

     total energy              =    -553.10248827 Ry
     estimated scf accuracy    <       0.00032650 Ry

     iteration #  6     ecut=    80.00 Ry     beta= 0.70
     Davidson diagonalization with overlap

---- Real-time Memory Report at c_bands before calling an iterative solver
            87 MiB given to the printing process from OS
             0 MiB allocation reported by mallinfo(arena+hblkhd)
        229761 MiB available memory on the node where the printing process lives
------------------
     ethr =  5.63E-07,  avg # of iterations =  4.8

     total cpu time spent up to now is       13.4 secs

     total energy              =    -553.10253247 Ry
     estimated scf accuracy    <       0.00001131 Ry

     iteration #  7     ecut=    80.00 Ry     beta= 0.70
     Davidson diagonalization with overlap

---- Real-time Memory Report at c_bands before calling an iterative solver
            90 MiB given to the printing process from OS
             0 MiB allocation reported by mallinfo(arena+hblkhd)
        229751 MiB available memory on the node where the printing process lives
------------------
     ethr =  1.95E-08,  avg # of iterations =  2.0

     total cpu time spent up to now is       15.6 secs

     total energy              =    -553.10253541 Ry
     estimated scf accuracy    <       0.00000029 Ry

     iteration #  8     ecut=    80.00 Ry     beta= 0.70
     Davidson diagonalization with overlap

---- Real-time Memory Report at c_bands before calling an iterative solver
            90 MiB given to the printing process from OS
             0 MiB allocation reported by mallinfo(arena+hblkhd)
        229696 MiB available memory on the node where the printing process lives
------------------
     ethr =  5.01E-10,  avg # of iterations =  2.0

     total cpu time spent up to now is       17.6 secs

     total energy              =    -553.10253547 Ry
     estimated scf accuracy    <       0.00000002 Ry

     iteration #  9     ecut=    80.00 Ry     beta= 0.70
     Davidson diagonalization with overlap

---- Real-time Memory Report at c_bands before calling an iterative solver
            90 MiB given to the printing process from OS
             0 MiB allocation reported by mallinfo(arena+hblkhd)
        229693 MiB available memory on the node where the printing process lives
------------------
     ethr =  2.84E-11,  avg # of iterations =  2.3

     total cpu time spent up to now is       19.8 secs

     total energy              =    -553.10253547 Ry
     estimated scf accuracy    <          1.3E-09 Ry

     iteration # 10     ecut=    80.00 Ry     beta= 0.70
     Davidson diagonalization with overlap

---- Real-time Memory Report at c_bands before calling an iterative solver
            90 MiB given to the printing process from OS
             0 MiB allocation reported by mallinfo(arena+hblkhd)
        229690 MiB available memory on the node where the printing process lives
------------------
     ethr =  2.17E-12,  avg # of iterations =  2.1

     total cpu time spent up to now is       21.9 secs

     End of self-consistent calculation

          k = 0.0000 0.0000 0.0000 (  5409 PWs)   bands (ev):

   -79.4333 -79.4333 -79.4320 -79.4320 -46.2726 -46.2726 -46.2620 -46.2620
   -32.8100 -32.8100 -32.8034 -32.8034 -32.6632 -32.6632 -32.6449 -32.6449
    -7.1014  -7.1014  -5.9506  -5.9506  -5.0303  -5.0303  -4.8295  -4.8295
     4.2321   4.2321   4.4711   4.4711   6.0224   6.0224   6.1352   6.1352
     6.2408   6.2408   8.7836   8.7836   8.8987   8.8987   9.1576   9.1576
    10.3324  10.3324  10.9468  10.9468  10.9555  10.9555  10.9882  10.9882
    11.1879  11.1879  11.3678  11.3678  11.6103  11.6103  11.6391  11.6391
    12.0350  12.0350  14.6143  14.6143  15.0430  15.0430  17.6670  17.6670
    17.8826  17.8826  18.0245  18.0245  19.3942  19.3942

     occupation numbers 
     1.0000   1.0000   1.0000   1.0000   1.0000   1.0000   1.0000   1.0000
     1.0000   1.0000   1.0000   1.0000   1.0000   1.0000   1.0000   1.0000
     1.0000   1.0000   1.0000   1.0000   1.0000   1.0000   1.0000   1.0000
     1.0000   1.0000   1.0000   1.0000   1.0000   1.0000   1.0000   1.0000
     1.0000   1.0000   1.0000   1.0000   1.0000   1.0000   1.0000   1.0000
     1.0000   1.0000   1.0000   1.0000   1.0000   1.0000   1.0000   1.0000
     1.0000   1.0000   1.0000   1.0000   1.0000   1.0000   1.0000   1.0000
     1.0000   1.0000  -0.0000  -0.0000  -0.0000  -0.0000  -0.0000  -0.0000
    -0.0000  -0.0000  -0.0000  -0.0000  -0.0000  -0.0000

          k = 0.0000 0.0000-0.7124 (  5314 PWs)   bands (ev):

   -79.4303 -79.4303 -79.4303 -79.4303 -46.2785 -46.2785 -46.2785 -46.2785
   -32.8630 -32.8630 -32.8630 -32.8630 -32.6683 -32.6683 -32.6683 -32.6683
    -5.7621  -5.7621  -5.7621  -5.7621  -5.4290  -5.4290  -5.4290  -5.4290
     5.7037   5.7037   5.7037   5.7037   6.6857   6.6857   6.6857   6.6857
     7.0794   7.0794   7.0794   7.0794   8.1669   8.1669   8.1669   8.1669
     8.5297   8.5297   8.5297   8.5297   9.9412   9.9412   9.9412   9.9412
    11.8630  11.8630  11.8630  11.8630  13.0540  13.0540  13.0540  13.0540
    14.0843  14.0843  14.0843  14.0843  16.0494  16.0494  16.0494  16.0494
    16.5801  16.5801  16.5801  16.5801  22.9156  22.9156

     occupation numbers 
     1.0000   1.0000   1.0000   1.0000   1.0000   1.0000   1.0000   1.0000
     1.0000   1.0000   1.0000   1.0000   1.0000   1.0000   1.0000   1.0000
     1.0000   1.0000   1.0000   1.0000   1.0000   1.0000   1.0000   1.0000
     1.0000   1.0000   1.0000   1.0000   1.0000   1.0000   1.0000   1.0000
     1.0000   1.0000   1.0000   1.0000   1.0000   1.0000   1.0000   1.0000
     1.0000   1.0000   1.0000   1.0000   1.0000   1.0000   1.0000   1.0000
     1.0000   1.0000   1.0000   1.0000   1.0000   1.0000   1.0000   1.0000
     0.0387   0.0387   0.0387   0.0387  -0.0000  -0.0000  -0.0000  -0.0000
    -0.0000  -0.0000  -0.0000  -0.0000  -0.0000  -0.0000

          k = 0.0000 0.2000 0.0000 (  5363 PWs)   bands (ev):

   -79.4332 -79.4332 -79.4321 -79.4321 -46.2716 -46.2716 -46.2630 -46.2630
   -32.8083 -32.8083 -32.8030 -32.8030 -32.6627 -32.6627 -32.6478 -32.6478
    -6.9530  -6.9530  -5.9395  -5.9395  -5.1568  -5.1568  -4.9657  -4.9657
     4.6020   4.6020   4.7557   4.7557   6.0768   6.0768   6.1677   6.1677
     6.4901   6.4901   8.3661   8.3661   8.5303   8.5303   8.7394   8.7394
     9.7042   9.7042   9.9599   9.9599  10.6119  10.6119  11.4193  11.4193
    11.5376  11.5376  11.6399  11.6399  11.8947  11.8947  12.0275  12.0275
    12.4571  12.4571  14.7371  14.7371  15.2472  15.2472  17.5192  17.5192
    17.8240  17.8240  18.5428  18.5428  19.0405  19.0405

     occupation numbers 
     1.0000   1.0000   1.0000   1.0000   1.0000   1.0000   1.0000   1.0000
     1.0000   1.0000   1.0000   1.0000   1.0000   1.0000   1.0000   1.0000
     1.0000   1.0000   1.0000   1.0000   1.0000   1.0000   1.0000   1.0000
     1.0000   1.0000   1.0000   1.0000   1.0000   1.0000   1.0000   1.0000
     1.0000   1.0000   1.0000   1.0000   1.0000   1.0000   1.0000   1.0000
     1.0000   1.0000   1.0000   1.0000   1.0000   1.0000   1.0000   1.0000
     1.0000   1.0000   1.0000   1.0000   1.0000   1.0000   1.0000   1.0000
     1.0000   1.0000  -0.0000  -0.0000  -0.0000  -0.0000  -0.0000  -0.0000
    -0.0000  -0.0000  -0.0000  -0.0000  -0.0000  -0.0000

          k = 0.0000 0.2000-0.7124 (  5378 PWs)   bands (ev):

   -79.4303 -79.4303 -79.4303 -79.4303 -46.2791 -46.2791 -46.2780 -46.2780
   -32.8721 -32.8721 -32.8543 -32.8543 -32.6740 -32.6740 -32.6625 -32.6625
    -5.8054  -5.8054  -5.7893  -5.7893  -5.4432  -5.4432  -5.3312  -5.3312
     5.6823   5.6823   5.7581   5.7581   6.1386   6.1386   6.2520   6.2520
     7.5169   7.5169   7.5944   7.5944   8.0658   8.0658   8.2779   8.2779
     8.9385   8.9385   9.0007   9.0007   9.6868   9.6868   9.7263   9.7263
    11.8505  11.8505  11.8670  11.8670  12.4945  12.4945  12.7456  12.7456
    14.0254  14.0254  14.3416  14.3416  15.4260  15.4260  15.5085  15.5085
    17.2757  17.2757  17.4785  17.4785  22.9412  22.9921

     occupation numbers 
     1.0000   1.0000   1.0000   1.0000   1.0000   1.0000   1.0000   1.0000
     1.0000   1.0000   1.0000   1.0000   1.0000   1.0000   1.0000   1.0000
     1.0000   1.0000   1.0000   1.0000   1.0000   1.0000   1.0000   1.0000
     1.0000   1.0000   1.0000   1.0000   1.0000   1.0000   1.0000   1.0000
     1.0000   1.0000   1.0000   1.0000   1.0000   1.0000   1.0000   1.0000
     1.0000   1.0000   1.0000   1.0000   1.0000   1.0000   1.0000   1.0000
     1.0000   1.0000   1.0000   1.0000   1.0000   1.0000   1.0000   1.0000
     0.6351   0.6351  -0.0000  -0.0000  -0.0000  -0.0000  -0.0000  -0.0000
    -0.0000  -0.0000  -0.0000  -0.0000  -0.0000  -0.0000

          k = 0.0000 0.4000 0.0000 (  5370 PWs)   bands (ev):

   -79.4329 -79.4329 -79.4325 -79.4325 -46.2690 -46.2690 -46.2657 -46.2657
   -32.8050 -32.8050 -32.8030 -32.8030 -32.6601 -32.6601 -32.6544 -32.6544
    -6.5544  -6.5544  -6.0939  -6.0939  -5.3294  -5.3294  -5.1970  -5.1970
     5.3804   5.3804   5.4380   5.4380   6.1870   6.1870   6.2227   6.2227
     7.1654   7.1654   7.5119   7.5119   7.5344   7.5344   8.5015   8.5015
     8.6532   8.6532   8.9963   8.9963  10.6404  10.6404  11.0033  11.0033
    12.0045  12.0045  12.0963  12.0963  12.3320  12.3320  12.4753  12.4753
    13.1912  13.1912  14.0291  14.0291  16.5984  16.5984  17.2791  17.2791
    17.4580  17.4580  18.0515  18.0515  20.0050  20.0050

     occupation numbers 
     1.0000   1.0000   1.0000   1.0000   1.0000   1.0000   1.0000   1.0000
     1.0000   1.0000   1.0000   1.0000   1.0000   1.0000   1.0000   1.0000
     1.0000   1.0000   1.0000   1.0000   1.0000   1.0000   1.0000   1.0000
     1.0000   1.0000   1.0000   1.0000   1.0000   1.0000   1.0000   1.0000
     1.0000   1.0000   1.0000   1.0000   1.0000   1.0000   1.0000   1.0000
     1.0000   1.0000   1.0000   1.0000   1.0000   1.0000   1.0000   1.0000
     1.0000   1.0000   1.0000   1.0000   1.0000   1.0000   1.0000   1.0000
     1.0000   1.0000   0.5907   0.5907  -0.0000  -0.0000  -0.0000  -0.0000
    -0.0000  -0.0000  -0.0000  -0.0000  -0.0000  -0.0000

          k = 0.0000 0.4000-0.7124 (  5358 PWs)   bands (ev):

   -79.4303 -79.4303 -79.4303 -79.4303 -46.2795 -46.2795 -46.2776 -46.2776
   -32.8778 -32.8778 -32.8490 -32.8490 -32.6775 -32.6775 -32.6589 -32.6589
    -5.8462  -5.8462  -5.8438  -5.8438  -5.4073  -5.4073  -5.2501  -5.2501
     5.4805   5.4805   5.5317   5.5317   6.1352   6.1352   6.1639   6.1639
     7.5377   7.5377   7.9905   7.9905   8.3272   8.3272   8.4552   8.4552
     9.0387   9.0387   9.0682   9.0682  10.1386  10.1386  10.1752  10.1752
    11.3938  11.3938  11.4501  11.4501  11.8702  11.8702  12.2430  12.2430
    14.1115  14.1115  14.4599  14.4599  15.0333  15.0333  15.0815  15.0815
    18.0668  18.0668  18.2444  18.2444  23.0791  23.0829

     occupation numbers 
     1.0000   1.0000   1.0000   1.0000   1.0000   1.0000   1.0000   1.0000
     1.0000   1.0000   1.0000   1.0000   1.0000   1.0000   1.0000   1.0000
     1.0000   1.0000   1.0000   1.0000   1.0000   1.0000   1.0000   1.0000
     1.0000   1.0000   1.0000   1.0000   1.0000   1.0000   1.0000   1.0000
     1.0000   1.0000   1.0000   1.0000   1.0000   1.0000   1.0000   1.0000
     1.0000   1.0000   1.0000   1.0000   1.0000   1.0000   1.0000   1.0000
     1.0000   1.0000   1.0000   1.0000   1.0000   1.0000   1.0000   1.0000
    -0.0328  -0.0328  -0.0000  -0.0000  -0.0000  -0.0000  -0.0000  -0.0000
    -0.0000  -0.0000  -0.0000  -0.0000  -0.0000  -0.0000

          k = 0.2000 0.2000 0.0000 (  5377 PWs)   bands (ev):

   -79.4331 -79.4331 -79.4322 -79.4322 -46.2708 -46.2708 -46.2638 -46.2638
   -32.8078 -32.8078 -32.8028 -32.8028 -32.6620 -32.6620 -32.6497 -32.6497
    -6.8423  -6.8423  -5.9614  -5.9614  -5.2901  -5.2901  -4.9622  -4.9622
     4.3566   4.3566   5.4317   5.4317   6.0493   6.0493   6.2216   6.2216
     6.7209   6.7209   7.4640   7.4640   8.5991   8.5991   8.9284   8.9284
     9.7271   9.7271   9.9844   9.9844  10.2161  10.2161  11.1241  11.1241
    11.2570  11.2570  11.6373  11.6373  12.1149  12.1149  12.3817  12.3817
    12.8197  12.8197  14.5820  14.5820  15.3950  15.3950  17.3438  17.3438
    17.8537  17.8537  18.6534  18.6534  19.2420  19.2420

     occupation numbers 
     1.0000   1.0000   1.0000   1.0000   1.0000   1.0000   1.0000   1.0000
     1.0000   1.0000   1.0000   1.0000   1.0000   1.0000   1.0000   1.0000
     1.0000   1.0000   1.0000   1.0000   1.0000   1.0000   1.0000   1.0000
     1.0000   1.0000   1.0000   1.0000   1.0000   1.0000   1.0000   1.0000
     1.0000   1.0000   1.0000   1.0000   1.0000   1.0000   1.0000   1.0000
     1.0000   1.0000   1.0000   1.0000   1.0000   1.0000   1.0000   1.0000
     1.0000   1.0000   1.0000   1.0000   1.0000   1.0000   1.0000   1.0000
     1.0000   1.0000  -0.0000  -0.0000  -0.0000  -0.0000  -0.0000  -0.0000
    -0.0000  -0.0000  -0.0000  -0.0000  -0.0000  -0.0000

          k = 0.2000 0.2000-0.7124 (  5378 PWs)   bands (ev):

   -79.4303 -79.4303 -79.4303 -79.4303 -46.2792 -46.2792 -46.2779 -46.2779
   -32.8735 -32.8735 -32.8530 -32.8530 -32.6749 -32.6749 -32.6617 -32.6617
    -5.8563  -5.8563  -5.7161  -5.7161  -5.4914  -5.4914  -5.2950  -5.2950
     5.5374   5.5374   5.8888   5.8888   6.0604   6.0604   6.4231   6.4231
     6.6338   6.6338   8.0162   8.0162   8.2787   8.2787   8.7867   8.7867
     8.8540   8.8540   9.0409   9.0409   9.4690   9.4690  10.0459  10.0459
    11.7756  11.7756  11.8541  11.8541  12.1842  12.1842  12.9345  12.9345
    13.5917  13.5917  14.5074  14.5074  14.9824  14.9824  16.0612  16.0612
    16.8598  16.8598  17.9835  17.9835  22.9103  22.9103

     occupation numbers 
     1.0000   1.0000   1.0000   1.0000   1.0000   1.0000   1.0000   1.0000
     1.0000   1.0000   1.0000   1.0000   1.0000   1.0000   1.0000   1.0000
     1.0000   1.0000   1.0000   1.0000   1.0000   1.0000   1.0000   1.0000
     1.0000   1.0000   1.0000   1.0000   1.0000   1.0000   1.0000   1.0000
     1.0000   1.0000   1.0000   1.0000   1.0000   1.0000   1.0000   1.0000
     1.0000   1.0000   1.0000   1.0000   1.0000   1.0000   1.0000   1.0000
     1.0000   1.0000   1.0000   1.0000   1.0000   1.0000   1.0000   1.0000
     1.0000   1.0000  -0.0000  -0.0000  -0.0000  -0.0000  -0.0000  -0.0000
    -0.0000  -0.0000  -0.0000  -0.0000  -0.0000  -0.0000

          k = 0.2000 0.4000 0.0000 (  5398 PWs)   bands (ev):

   -79.4328 -79.4328 -79.4325 -79.4325 -46.2687 -46.2687 -46.2660 -46.2660
   -32.8058 -32.8058 -32.8036 -32.8036 -32.6591 -32.6591 -32.6543 -32.6543
    -6.5466  -6.5466  -6.1793  -6.1793  -5.2948  -5.2948  -5.1036  -5.1036
     4.6770   4.6770   5.4063   5.4063   6.0836   6.0836   6.1896   6.1896
     7.3321   7.3321   7.5819   7.5819   8.3544   8.3544   8.7454   8.7454
     9.0754   9.0754   9.2904   9.2904  10.1669  10.1669  10.7156  10.7156
    11.6404  11.6404  11.9387  11.9387  12.1372  12.1372  12.4260  12.4260
    13.4390  13.4390  14.0952  14.0952  16.2654  16.2654  17.3412  17.3412
    17.4783  17.4783  17.8407  17.8407  20.5778  20.5778

     occupation numbers 
     1.0000   1.0000   1.0000   1.0000   1.0000   1.0000   1.0000   1.0000
     1.0000   1.0000   1.0000   1.0000   1.0000   1.0000   1.0000   1.0000
     1.0000   1.0000   1.0000   1.0000   1.0000   1.0000   1.0000   1.0000
     1.0000   1.0000   1.0000   1.0000   1.0000   1.0000   1.0000   1.0000
     1.0000   1.0000   1.0000   1.0000   1.0000   1.0000   1.0000   1.0000
     1.0000   1.0000   1.0000   1.0000   1.0000   1.0000   1.0000   1.0000
     1.0000   1.0000   1.0000   1.0000   1.0000   1.0000   1.0000   1.0000
     1.0000   1.0000  -0.0049  -0.0049  -0.0000  -0.0000  -0.0000  -0.0000
    -0.0000  -0.0000  -0.0000  -0.0000  -0.0000  -0.0000

          k = 0.2000 0.4000-0.7124 (  5346 PWs)   bands (ev):

   -79.4303 -79.4303 -79.4303 -79.4303 -46.2794 -46.2794 -46.2778 -46.2778
   -32.8754 -32.8754 -32.8514 -32.8514 -32.6761 -32.6761 -32.6607 -32.6607
    -5.8389  -5.8389  -5.7579  -5.7579  -5.4567  -5.4567  -5.2881  -5.2881
     5.4799   5.4799   5.7289   5.7289   6.0172   6.0172   6.1638   6.1638
     7.0727   7.0727   7.7997   7.7997   8.2482   8.2482   8.3521   8.3521
     9.1323   9.1323   9.5243   9.5243  10.0295  10.0295  10.6204  10.6204
    11.3018  11.3018  11.8220  11.8220  11.9279  11.9279  12.3535  12.3535
    13.8016  13.8016  14.3509  14.3509  15.0317  15.0317  15.5212  15.5212
    17.5927  17.5927  18.1354  18.1354  23.0629  23.0629

     occupation numbers 
     1.0000   1.0000   1.0000   1.0000   1.0000   1.0000   1.0000   1.0000
     1.0000   1.0000   1.0000   1.0000   1.0000   1.0000   1.0000   1.0000
     1.0000   1.0000   1.0000   1.0000   1.0000   1.0000   1.0000   1.0000
     1.0000   1.0000   1.0000   1.0000   1.0000   1.0000   1.0000   1.0000
     1.0000   1.0000   1.0000   1.0000   1.0000   1.0000   1.0000   1.0000
     1.0000   1.0000   1.0000   1.0000   1.0000   1.0000   1.0000   1.0000
     1.0000   1.0000   1.0000   1.0000   1.0000   1.0000   1.0000   1.0000
     1.0000   1.0000  -0.0000  -0.0000  -0.0000  -0.0000  -0.0000  -0.0000
    -0.0000  -0.0000  -0.0000  -0.0000  -0.0000  -0.0000

          k = 0.4000 0.4000 0.0000 (  5386 PWs)   bands (ev):

   -79.4327 -79.4327 -79.4326 -79.4326 -46.2679 -46.2679 -46.2669 -46.2669
   -32.8064 -32.8064 -32.8053 -32.8053 -32.6568 -32.6568 -32.6548 -32.6548
    -6.4897  -6.4897  -6.3534  -6.3534  -5.1492  -5.1492  -5.0495  -5.0495
     4.3597   4.3597   4.6747   4.6747   6.0097   6.0097   6.0605   6.0605
     7.9863   7.9863   8.4716   8.4716   8.7505   8.7505   9.1694   9.1694
     9.4612   9.4612   9.6042   9.6042   9.7592   9.7592  10.4470  10.4470
    11.1278  11.1278  11.5324  11.5324  11.8002  11.8002  12.0244  12.0244
    13.8493  13.8493  14.0844  14.0844  16.1015  16.1015  16.6349  16.6349
    17.7260  17.7260  17.9167  17.9167  21.6209  21.6209

     occupation numbers 
     1.0000   1.0000   1.0000   1.0000   1.0000   1.0000   1.0000   1.0000
     1.0000   1.0000   1.0000   1.0000   1.0000   1.0000   1.0000   1.0000
     1.0000   1.0000   1.0000   1.0000   1.0000   1.0000   1.0000   1.0000
     1.0000   1.0000   1.0000   1.0000   1.0000   1.0000   1.0000   1.0000
     1.0000   1.0000   1.0000   1.0000   1.0000   1.0000   1.0000   1.0000
     1.0000   1.0000   1.0000   1.0000   1.0000   1.0000   1.0000   1.0000
     1.0000   1.0000   1.0000   1.0000   1.0000   1.0000   1.0000   1.0000
     1.0004   1.0004   0.0383   0.0383  -0.0000  -0.0000  -0.0000  -0.0000
    -0.0000  -0.0000  -0.0000  -0.0000  -0.0000  -0.0000

          k = 0.4000 0.4000-0.7124 (  5370 PWs)   bands (ev):

   -79.4303 -79.4303 -79.4303 -79.4303 -46.2790 -46.2790 -46.2782 -46.2782
   -32.8696 -32.8696 -32.8570 -32.8570 -32.6728 -32.6728 -32.6647 -32.6647
    -5.7503  -5.7503  -5.6475  -5.6475  -5.5417  -5.5417  -5.3928  -5.3928
     5.6114   5.6114   5.8104   5.8104   5.9701   5.9701   6.3215   6.3215
     6.5505   6.5505   7.1845   7.1845   8.1701   8.1701   8.2742   8.2742
     9.5141   9.5141   9.6555   9.6555  10.4222  10.4222  10.7299  10.7299
    11.7556  11.7556  11.9006  11.9006  12.1481  12.1481  12.6904  12.6904
    13.3267  13.3267  13.9022  13.9022  15.5011  15.5011  16.0345  16.0345
    17.0089  17.0089  17.5667  17.5667  23.0540  23.0543

     occupation numbers 
     1.0000   1.0000   1.0000   1.0000   1.0000   1.0000   1.0000   1.0000
     1.0000   1.0000   1.0000   1.0000   1.0000   1.0000   1.0000   1.0000
     1.0000   1.0000   1.0000   1.0000   1.0000   1.0000   1.0000   1.0000
     1.0000   1.0000   1.0000   1.0000   1.0000   1.0000   1.0000   1.0000
     1.0000   1.0000   1.0000   1.0000   1.0000   1.0000   1.0000   1.0000
     1.0000   1.0000   1.0000   1.0000   1.0000   1.0000   1.0000   1.0000
     1.0000   1.0000   1.0000   1.0000   1.0000   1.0000   1.0000   1.0000
     1.0000   1.0000   1.0087   1.0087  -0.0000  -0.0000  -0.0000  -0.0000
    -0.0000  -0.0000  -0.0000  -0.0000  -0.0000  -0.0000

     the Fermi energy is    14.0364 ev

!    total energy              =    -553.10253547 Ry
     estimated scf accuracy    <          8.5E-11 Ry
     smearing contrib. (-TS)   =      -0.00009627 Ry
     internal energy E=F+TS    =    -553.10243920 Ry

     The total energy is F=E-TS. E is the sum of the following terms:
     one-electron contribution =    -190.81512564 Ry
     hartree contribution      =     122.59002968 Ry
     xc contribution           =     -69.89133271 Ry
     ewald contribution        =    -414.98601052 Ry

     convergence has been achieved in  10 iterations

     Forces acting on atoms (cartesian axes, Ry/au):

     atom    1 type  2   force =     0.00000000    0.00000000    0.00000000
     atom    2 type  2   force =     0.00000000    0.00000000   -0.00000000
     atom    3 type  1   force =    -0.01443075    0.01443075   -0.00000000
     atom    4 type  1   force =     0.01443075    0.01443075    0.00000000
     atom    5 type  1   force =    -0.01443075   -0.01443075    0.00000000
     atom    6 type  1   force =     0.01443075   -0.01443075   -0.00000000
     The non-local contrib.  to forces
     atom    1 type  2   force =     0.00000000    0.00000000    0.00000000
     atom    2 type  2   force =     0.00000000    0.00000000    0.00000000
     atom    3 type  1   force =    -0.13496020    0.13496020    0.00000000
     atom    4 type  1   force =     0.13496020    0.13496020   -0.00000000
     atom    5 type  1   force =    -0.13496020   -0.13496020   -0.00000000
     atom    6 type  1   force =     0.13496020   -0.13496020    0.00000000
     The ionic contribution  to forces
     atom    1 type  2   force =    -0.00000000   -0.00000000    0.00000000
     atom    2 type  2   force =     0.00000000    0.00000000   -0.00000000
     atom    3 type  1   force =     1.42937233   -1.42937233    0.00000000
     atom    4 type  1   force =    -1.42937233   -1.42937233   -0.00000000
     atom    5 type  1   force =     1.42937233    1.42937233   -0.00000000
     atom    6 type  1   force =    -1.42937233    1.42937233    0.00000000
     The local contribution  to forces
     atom    1 type  2   force =     0.00000000    0.00000000   -0.00000000
     atom    2 type  2   force =     0.00000000    0.00000000    0.00000000
     atom    3 type  1   force =    -1.30884325    1.30884325    0.00000000
     atom    4 type  1   force =     1.30884325    1.30884325    0.00000000
     atom    5 type  1   force =    -1.30884325   -1.30884325    0.00000000
     atom    6 type  1   force =     1.30884325   -1.30884325    0.00000000
     The core correction contribution to forces
     atom    1 type  2   force =     0.00000000    0.00000000    0.00000000
     atom    2 type  2   force =     0.00000000    0.00000000    0.00000000
     atom    3 type  1   force =     0.00000000    0.00000000    0.00000000
     atom    4 type  1   force =     0.00000000    0.00000000    0.00000000
     atom    5 type  1   force =     0.00000000    0.00000000    0.00000000
     atom    6 type  1   force =     0.00000000    0.00000000    0.00000000
     The Hubbard contrib.    to forces
     atom    1 type  2   force =     0.00000000    0.00000000    0.00000000
     atom    2 type  2   force =     0.00000000    0.00000000    0.00000000
     atom    3 type  1   force =     0.00000000    0.00000000    0.00000000
     atom    4 type  1   force =     0.00000000    0.00000000    0.00000000
     atom    5 type  1   force =     0.00000000    0.00000000    0.00000000
     atom    6 type  1   force =     0.00000000    0.00000000    0.00000000
     The SCF correction term to forces
     atom    1 type  2   force =    -0.00000000   -0.00000000    0.00000000
     atom    2 type  2   force =     0.00000000   -0.00000000   -0.00000000
     atom    3 type  1   force =     0.00000037   -0.00000037   -0.00000000
     atom    4 type  1   force =    -0.00000037   -0.00000037   -0.00000000
     atom    5 type  1   force =     0.00000037    0.00000037    0.00000000
     atom    6 type  1   force =    -0.00000037    0.00000037   -0.00000000

     Total force =     0.040816     Total SCF correction =     0.000001


     Computing stress (Cartesian axis) and pressure

          total   stress  (Ry/bohr**3)                   (kbar)     P=      -48.77
  -0.00021364   0.00000000   0.00000000          -31.43        0.00        0.00
   0.00000000  -0.00021364   0.00000000            0.00      -31.43        0.00
   0.00000000   0.00000000  -0.00056728            0.00        0.00      -83.45

     kinetic stress (kbar)  48388.79      0.00      0.00
                                0.00  48388.79      0.00
                                0.00      0.00  47587.08

     local   stress (kbar) -12625.88      0.00      0.00
                                0.00 -12625.88     -0.00
                                0.00     -0.00 -44455.32

     nonloc. stress (kbar)  14537.34      0.00      0.00
                                0.00  14537.34      0.00
                                0.00      0.00  14679.95

     hartree stress (kbar)   9590.47      0.00     -0.00
                                0.00   9590.47      0.00
                               -0.00      0.00  21372.59

     exc-cor stress (kbar)  -7285.94      0.00      0.00
                                0.00  -7285.94      0.00
                                0.00      0.00  -7260.30

     corecor stress (kbar)      0.00      0.00      0.00
                                0.00      0.00      0.00
                                0.00      0.00      0.00

     ewald   stress (kbar) -52636.21     -0.00     -0.00
                               -0.00 -52636.21     -0.00
                               -0.00     -0.00 -32007.45

     hubbard stress (kbar)      0.00      0.00      0.00
                                0.00      0.00      0.00
                                0.00      0.00      0.00

     DFT-D   stress (kbar)      0.00      0.00      0.00
                                0.00      0.00      0.00
                                0.00      0.00      0.00

     XDM     stress (kbar)      0.00      0.00      0.00
                                0.00      0.00      0.00
                                0.00      0.00      0.00

     dft-nl  stress (kbar)      0.00      0.00      0.00
                                0.00      0.00      0.00
                                0.00      0.00      0.00

     TS-vdW  stress (kbar)      0.00      0.00      0.00
                                0.00      0.00      0.00
                                0.00      0.00      0.00


                                0.00      0.00      0.00
                                0.00      0.00      0.00


                                0.00      0.00      0.00


     Writing all to output data dir tmp/espresso.save/
 
     init_run     :      1.27s CPU      0.68s WALL (       1 calls)
     electrons    :     41.41s CPU     21.19s WALL (       1 calls)
     forces       :      2.01s CPU      1.03s WALL (       1 calls)
     stress       :      2.99s CPU      1.51s WALL (       1 calls)

     Called by init_run:
     wfcinit      :      1.20s CPU      0.62s WALL (       1 calls)
     wfcinit:atom :      0.00s CPU      0.00s WALL (      12 calls)
     wfcinit:wfcr :      1.17s CPU      0.60s WALL (      12 calls)
     potinit      :      0.02s CPU      0.01s WALL (       1 calls)
     hinit0       :      0.04s CPU      0.04s WALL (       1 calls)

     Called by electrons:
     c_bands      :     37.85s CPU     19.37s WALL (      10 calls)
     sum_band     :      3.42s CPU      1.75s WALL (      10 calls)
     v_of_rho     :      0.05s CPU      0.03s WALL (      11 calls)
     v_h          :      0.00s CPU      0.00s WALL (      11 calls)
     v_xc         :      0.05s CPU      0.02s WALL (      11 calls)
     mix_rho      :      0.05s CPU      0.02s WALL (      10 calls)

     Called by c_bands:
     init_us_2    :      0.12s CPU      0.06s WALL (     276 calls)
     init_us_2:cp :      0.11s CPU      0.06s WALL (     276 calls)
     cegterg      :     34.92s CPU     17.87s WALL (     120 calls)

     Called by sum_band:
     sum_band:wei :      0.03s CPU      0.01s WALL (      10 calls)
     sum_band:loo :      3.37s CPU      1.73s WALL (      10 calls)
     sum_band:buf :      0.02s CPU      0.01s WALL (     120 calls)
     sum_band:ini :      0.04s CPU      0.02s WALL (     120 calls)

     Called by *egterg:
     cdiaghg      :      5.34s CPU      2.72s WALL (     430 calls)
     cegterg:over :      2.13s CPU      1.09s WALL (     310 calls)
     cegterg:upda :      1.70s CPU      0.86s WALL (     310 calls)
     cegterg:last :      2.96s CPU      1.50s WALL (     240 calls)
     cdiaghg:chol :      0.25s CPU      0.13s WALL (     430 calls)
     cdiaghg:inve :      0.04s CPU      0.02s WALL (     430 calls)
     cdiaghg:para :      0.56s CPU      0.28s WALL (     860 calls)
     h_psi        :     23.08s CPU     11.86s WALL (     442 calls)
     g_psi        :      0.03s CPU      0.02s WALL (     310 calls)

     Called by h_psi:
     h_psi:calbec :      2.81s CPU      1.47s WALL (     442 calls)
     vloc_psi     :     16.17s CPU      8.30s WALL (     442 calls)
     add_vuspsi   :      4.05s CPU      2.06s WALL (     442 calls)

     General routines
     calbec       :      3.47s CPU      1.81s WALL (     502 calls)
     fft          :      0.07s CPU      0.03s WALL (     150 calls)
     ffts         :      0.01s CPU      0.01s WALL (      40 calls)
     fftw         :     18.30s CPU      9.39s WALL (  103724 calls)
 
     Parallel routines
 
     PWSCF        :     49.20s CPU     25.69s WALL

 
   This run was terminated on:   9:42:41  10Apr2022            

=------------------------------------------------------------------------------=
   JOB DONE.
=------------------------------------------------------------------------------=
