
     Program PWSCF v.7.0 starts on 10Apr2022 at 11:22:14 

     This program is part of the open-source Quantum ESPRESSO suite
     for quantum simulation of materials; please cite
         "P. Giannozzi et al., J. Phys.:Condens. Matter 21 395502 (2009);
         "P. Giannozzi et al., J. Phys.:Condens. Matter 29 465901 (2017);
         "P. Giannozzi et al., J. Chem. Phys. 152 154105 (2020);
          URL http://www.quantum-espresso.org", 
     in publications or presentations arising from this work. More details at
     http://www.quantum-espresso.org/quote

     Parallel version (MPI & OpenMP), running on      64 processor cores
     Number of MPI processes:                32
     Threads/MPI process:                     2

     MPI processes distributed on     1 nodes
     R & G space division:  proc/nbgrp/npool/nimage =      32
     230403 MiB available memory on the printing compute node when the environment starts
 
     Reading input from kpoints_999.pwi
Warning: card &CELL ignored
Warning: card / ignored

     Current dimensions of program PWSCF are:
     Max number of different atomic species (ntypx) = 10
     Max number of k-points (npk) =  40000
     Max angular momentum in pseudopotentials (lmaxx) =  4

     Subspace diagonalization in iterative solution of the eigenvalue problem:
     one sub-group per band group will be used
     scalapack distributed-memory algorithm (size of sub-group:  5*  5 procs)

 
     Parallelization info
     --------------------
     sticks:   dense  smooth     PW     G-vecs:    dense   smooth      PW
     Min          58      58     16                 1342     1342     206
     Max          59      59     18                 1345     1345     209
     Sum        1885    1885    545                42999    42999    6635
 
     Using Slab Decomposition
 

     Title: 
     IrO2 Unit Cell                                                             


     bravais-lattice index     =            6
     lattice parameter (alat)  =       8.5888  a.u.
     unit-cell volume          =     444.6868 (a.u.)^3
     number of atoms/cell      =            6
     number of atomic types    =            2
     number of electrons       =        58.00
     number of Kohn-Sham states=           70
     kinetic-energy cutoff     =      80.0000  Ry
     charge density cutoff     =     320.0000  Ry
     scf convergence threshold =      1.0E-09
     mixing beta               =       0.7000
     number of iterations used =            8  plain     mixing
     Exchange-correlation= PBE
                           (   1   4   3   4   0   0   0)
     Non magnetic calculation with spin-orbit


     celldm(1)=   8.588800  celldm(2)=   0.000000  celldm(3)=   0.701870
     celldm(4)=   0.000000  celldm(5)=   0.000000  celldm(6)=   0.000000

     crystal axes: (cart. coord. in units of alat)
               a(1) = (   1.000000   0.000000   0.000000 )  
               a(2) = (   0.000000   1.000000   0.000000 )  
               a(3) = (   0.000000   0.000000   0.701870 )  

     reciprocal axes: (cart. coord. in units 2 pi/alat)
               b(1) = (  1.000000  0.000000  0.000000 )  
               b(2) = (  0.000000  1.000000  0.000000 )  
               b(3) = (  0.000000  0.000000  1.424765 )  


     PseudoPot. # 1 for O  read from file:
     ../../XX_PSEUDO/O_ONCV_PBE_fr.upf
     MD5 check sum: 59c925217d3b58c6d762355590b68b09
     Pseudo is Norm-conserving, Zval =  6.0
     Generated using ONCVPSP code by D. R. Hamann
     Using radial grid of  936 points,  6 beta functions with: 
                l(1) =   0
                l(2) =   0
                l(3) =   1
                l(4) =   1
                l(5) =   1
                l(6) =   1

     PseudoPot. # 2 for Ir read from file:
     ../../XX_PSEUDO/Ir_ONCV_PBE_fr.upf
     MD5 check sum: 924e909c4146afa09f62ee3401806954
     Pseudo is Norm-conserving, Zval = 17.0
     Generated using ONCVPSP code by D. R. Hamann
     Using radial grid of 1310 points, 14 beta functions with: 
                l(1) =   0
                l(2) =   0
                l(3) =   1
                l(4) =   1
                l(5) =   1
                l(6) =   1
                l(7) =   2
                l(8) =   2
                l(9) =   2
               l(10) =   2
               l(11) =   3
               l(12) =   3
               l(13) =   3
               l(14) =   3

     atomic species   valence    mass     pseudopotential
        O              6.00    15.99900     O ( 1.00)
        Ir            17.00   192.21700     Ir( 1.00)

     16 Sym. Ops., with inversion, found ( 8 have fractional translation)


                                    s                        frac. trans.

      isym =  1     identity                                     

 cryst.   s( 1) = (     1          0          0      )
                  (     0          1          0      )
                  (     0          0          1      )

 cart.    s( 1) = (  1.0000000  0.0000000  0.0000000 )
                  (  0.0000000  1.0000000  0.0000000 )
                  (  0.0000000  0.0000000  1.0000000 )


      isym =  2     180 deg rotation - cart. axis [0,0,1]        

 cryst.   s( 2) = (    -1          0          0      )
                  (     0         -1          0      )
                  (     0          0          1      )

 cart.    s( 2) = ( -1.0000000  0.0000000  0.0000000 )
                  (  0.0000000 -1.0000000  0.0000000 )
                  (  0.0000000  0.0000000  1.0000000 )


      isym =  3     180 deg rotation - cart. axis [0,1,0]        

 cryst.   s( 3) = (    -1          0          0      )    f =(  0.5000000 )
                  (     0          1          0      )       ( -0.5000000 )
                  (     0          0         -1      )       (  0.5000000 )

 cart.    s( 3) = ( -1.0000000  0.0000000  0.0000000 )    f =(  0.5000000 )
                  (  0.0000000  1.0000000  0.0000000 )       ( -0.5000000 )
                  (  0.0000000  0.0000000 -1.0000000 )       (  0.3509351 )


      isym =  4     180 deg rotation - cart. axis [1,0,0]        

 cryst.   s( 4) = (     1          0          0      )    f =( -0.5000000 )
                  (     0         -1          0      )       (  0.5000000 )
                  (     0          0         -1      )       (  0.5000000 )

 cart.    s( 4) = (  1.0000000  0.0000000  0.0000000 )    f =( -0.5000000 )
                  (  0.0000000 -1.0000000  0.0000000 )       (  0.5000000 )
                  (  0.0000000  0.0000000 -1.0000000 )       (  0.3509351 )


      isym =  5     180 deg rotation - cart. axis [1,1,0]        

 cryst.   s( 5) = (     0          1          0      )
                  (     1          0          0      )
                  (     0          0         -1      )

 cart.    s( 5) = (  0.0000000  1.0000000  0.0000000 )
                  (  1.0000000  0.0000000  0.0000000 )
                  (  0.0000000  0.0000000 -1.0000000 )


      isym =  6     180 deg rotation - cart. axis [1,-1,0]       

 cryst.   s( 6) = (     0         -1          0      )
                  (    -1          0          0      )
                  (     0          0         -1      )

 cart.    s( 6) = (  0.0000000 -1.0000000  0.0000000 )
                  ( -1.0000000  0.0000000  0.0000000 )
                  (  0.0000000  0.0000000 -1.0000000 )


      isym =  7      90 deg rotation - cart. axis [0,0,-1]       

 cryst.   s( 7) = (     0         -1          0      )    f =( -0.5000000 )
                  (     1          0          0      )       (  0.5000000 )
                  (     0          0          1      )       ( -0.5000000 )

 cart.    s( 7) = (  0.0000000  1.0000000  0.0000000 )    f =( -0.5000000 )
                  ( -1.0000000  0.0000000  0.0000000 )       (  0.5000000 )
                  (  0.0000000  0.0000000  1.0000000 )       ( -0.3509351 )


      isym =  8      90 deg rotation - cart. axis [0,0,1]        

 cryst.   s( 8) = (     0          1          0      )    f =(  0.5000000 )
                  (    -1          0          0      )       ( -0.5000000 )
                  (     0          0          1      )       ( -0.5000000 )

 cart.    s( 8) = (  0.0000000 -1.0000000  0.0000000 )    f =(  0.5000000 )
                  (  1.0000000  0.0000000  0.0000000 )       ( -0.5000000 )
                  (  0.0000000  0.0000000  1.0000000 )       ( -0.3509351 )


      isym =  9     inversion                                    

 cryst.   s( 9) = (    -1          0          0      )
                  (     0         -1          0      )
                  (     0          0         -1      )

 cart.    s( 9) = ( -1.0000000  0.0000000  0.0000000 )
                  (  0.0000000 -1.0000000  0.0000000 )
                  (  0.0000000  0.0000000 -1.0000000 )


      isym = 10     inv. 180 deg rotation - cart. axis [0,0,1]   

 cryst.   s(10) = (     1          0          0      )
                  (     0          1          0      )
                  (     0          0         -1      )

 cart.    s(10) = (  1.0000000  0.0000000  0.0000000 )
                  (  0.0000000  1.0000000  0.0000000 )
                  (  0.0000000  0.0000000 -1.0000000 )


      isym = 11     inv. 180 deg rotation - cart. axis [0,1,0]   

 cryst.   s(11) = (     1          0          0      )    f =( -0.5000000 )
                  (     0         -1          0      )       (  0.5000000 )
                  (     0          0          1      )       ( -0.5000000 )

 cart.    s(11) = (  1.0000000  0.0000000  0.0000000 )    f =( -0.5000000 )
                  (  0.0000000 -1.0000000  0.0000000 )       (  0.5000000 )
                  (  0.0000000  0.0000000  1.0000000 )       ( -0.3509351 )


      isym = 12     inv. 180 deg rotation - cart. axis [1,0,0]   

 cryst.   s(12) = (    -1          0          0      )    f =(  0.5000000 )
                  (     0          1          0      )       ( -0.5000000 )
                  (     0          0          1      )       ( -0.5000000 )

 cart.    s(12) = ( -1.0000000  0.0000000  0.0000000 )    f =(  0.5000000 )
                  (  0.0000000  1.0000000  0.0000000 )       ( -0.5000000 )
                  (  0.0000000  0.0000000  1.0000000 )       ( -0.3509351 )


      isym = 13     inv. 180 deg rotation - cart. axis [1,1,0]   

 cryst.   s(13) = (     0         -1          0      )
                  (    -1          0          0      )
                  (     0          0          1      )

 cart.    s(13) = (  0.0000000 -1.0000000  0.0000000 )
                  ( -1.0000000  0.0000000  0.0000000 )
                  (  0.0000000  0.0000000  1.0000000 )


      isym = 14     inv. 180 deg rotation - cart. axis [1,-1,0]  

 cryst.   s(14) = (     0          1          0      )
                  (     1          0          0      )
                  (     0          0          1      )

 cart.    s(14) = (  0.0000000  1.0000000  0.0000000 )
                  (  1.0000000  0.0000000  0.0000000 )
                  (  0.0000000  0.0000000  1.0000000 )


      isym = 15     inv.  90 deg rotation - cart. axis [0,0,-1]  

 cryst.   s(15) = (     0          1          0      )    f =(  0.5000000 )
                  (    -1          0          0      )       ( -0.5000000 )
                  (     0          0         -1      )       (  0.5000000 )

 cart.    s(15) = (  0.0000000 -1.0000000  0.0000000 )    f =(  0.5000000 )
                  (  1.0000000  0.0000000  0.0000000 )       ( -0.5000000 )
                  (  0.0000000  0.0000000 -1.0000000 )       (  0.3509351 )


      isym = 16     inv.  90 deg rotation - cart. axis [0,0,1]   

 cryst.   s(16) = (     0         -1          0      )    f =( -0.5000000 )
                  (     1          0          0      )       (  0.5000000 )
                  (     0          0         -1      )       (  0.5000000 )

 cart.    s(16) = (  0.0000000  1.0000000  0.0000000 )    f =( -0.5000000 )
                  ( -1.0000000  0.0000000  0.0000000 )       (  0.5000000 )
                  (  0.0000000  0.0000000 -1.0000000 )       (  0.3509351 )


     double point group D_4h(4/mmm)
     there are 14 classes and  4 irreducible representations
     the character table:

       E     -E    2C4   -2C4   C2    2C2' 2C2'' i     -i    2S4   -2S4   s_h 
                               -C2   -2C2' -2C2'                         -s_h 
G_6+   2.00 -2.00  1.41 -1.41  0.00  0.00  0.00  2.00 -2.00  1.41 -1.41  0.00
G_7+   2.00 -2.00 -1.41  1.41  0.00  0.00  0.00  2.00 -2.00 -1.41  1.41  0.00
G_6-   2.00 -2.00  1.41 -1.41  0.00  0.00  0.00 -2.00  2.00 -1.41  1.41  0.00
G_7-   2.00 -2.00 -1.41  1.41  0.00  0.00  0.00 -2.00  2.00  1.41 -1.41  0.00

        2s_v  2s_d
       -2s_v -2s_d
G_6+   0.00  0.00
G_7+   0.00  0.00
G_6-   0.00  0.00
G_7-   0.00  0.00

     the symmetry operations in each class and the name of the first element:

     E             1
          identity                                               
     -E           -1
          identity E                                             
     2C4           7    8
           90 deg rotation - cart. axis [0,0,-1]                 
     -2C4         -7   -8
           90 deg rotation - cart. axis [0,0,-1] E               
      C2  -C2      2   -2
          180 deg rotation - cart. axis [0,0,1]                  
      2C2'-2C2'    3   -3    4   -4
          180 deg rotation - cart. axis [0,1,0]                  
     2C2''-2C2'    5   -5   -6    6
          180 deg rotation - cart. axis [1,1,0]                  
     i             9
          inversion                                              
     -i           -9
          inversion E                                            
     2S4          15   16
          inv.  90 deg rotation - cart. axis [0,0,-1]            
     -2S4        -15  -16
          inv.  90 deg rotation - cart. axis [0,0,-1] E          
      s_h -s_h    10  -10
          inv. 180 deg rotation - cart. axis [0,0,1]             
      2s_v-2s_v   11  -11   12  -12
          inv. 180 deg rotation - cart. axis [0,1,0]             
      2s_d-2s_d   13  -13  -14   14
          inv. 180 deg rotation - cart. axis [1,1,0]             

   Cartesian axes

     site n.     atom                  positions (alat units)
         1           Ir  tau(   1) = (   0.0000000   0.0000000   0.0000000  )
         2           Ir  tau(   2) = (   0.5000000   0.5000000   0.3509351  )
         3           O   tau(   3) = (   0.1916000   0.8084000   0.3509351  )
         4           O   tau(   4) = (   0.3084000   0.3084000   0.0000000  )
         5           O   tau(   5) = (   0.6916000   0.6916000   0.0000000  )
         6           O   tau(   6) = (   0.8084000   0.1916000   0.3509351  )

   Crystallographic axes

     site n.     atom                  positions (cryst. coord.)
         1           Ir  tau(   1) = (  0.0000000  0.0000000  0.0000000  )
         2           Ir  tau(   2) = (  0.5000000  0.5000000  0.5000000  )
         3           O   tau(   3) = (  0.1916000  0.8084000  0.5000000  )
         4           O   tau(   4) = (  0.3084000  0.3084000  0.0000000  )
         5           O   tau(   5) = (  0.6916000  0.6916000  0.0000000  )
         6           O   tau(   6) = (  0.8084000  0.1916000  0.5000000  )

     number of k points=    75  Methfessel-Paxton smearing, width (Ry)=  0.0050
                       cart. coord. in units 2pi/alat
        k(    1) = (   0.0000000   0.0000000   0.0000000), wk =   0.0013717
        k(    2) = (   0.0000000   0.0000000   0.1583072), wk =   0.0027435
        k(    3) = (   0.0000000   0.0000000   0.3166144), wk =   0.0027435
        k(    4) = (   0.0000000   0.0000000   0.4749216), wk =   0.0027435
        k(    5) = (   0.0000000   0.0000000   0.6332288), wk =   0.0027435
        k(    6) = (   0.0000000   0.1111111   0.0000000), wk =   0.0054870
        k(    7) = (   0.0000000   0.1111111   0.1583072), wk =   0.0109739
        k(    8) = (   0.0000000   0.1111111   0.3166144), wk =   0.0109739
        k(    9) = (   0.0000000   0.1111111   0.4749216), wk =   0.0109739
        k(   10) = (   0.0000000   0.1111111   0.6332288), wk =   0.0109739
        k(   11) = (   0.0000000   0.2222222   0.0000000), wk =   0.0054870
        k(   12) = (   0.0000000   0.2222222   0.1583072), wk =   0.0109739
        k(   13) = (   0.0000000   0.2222222   0.3166144), wk =   0.0109739
        k(   14) = (   0.0000000   0.2222222   0.4749216), wk =   0.0109739
        k(   15) = (   0.0000000   0.2222222   0.6332288), wk =   0.0109739
        k(   16) = (   0.0000000   0.3333333   0.0000000), wk =   0.0054870
        k(   17) = (   0.0000000   0.3333333   0.1583072), wk =   0.0109739
        k(   18) = (   0.0000000   0.3333333   0.3166144), wk =   0.0109739
        k(   19) = (   0.0000000   0.3333333   0.4749216), wk =   0.0109739
        k(   20) = (   0.0000000   0.3333333   0.6332288), wk =   0.0109739
        k(   21) = (   0.0000000   0.4444444   0.0000000), wk =   0.0054870
        k(   22) = (   0.0000000   0.4444444   0.1583072), wk =   0.0109739
        k(   23) = (   0.0000000   0.4444444   0.3166144), wk =   0.0109739
        k(   24) = (   0.0000000   0.4444444   0.4749216), wk =   0.0109739
        k(   25) = (   0.0000000   0.4444444   0.6332288), wk =   0.0109739
        k(   26) = (   0.1111111   0.1111111   0.0000000), wk =   0.0054870
        k(   27) = (   0.1111111   0.1111111   0.1583072), wk =   0.0109739
        k(   28) = (   0.1111111   0.1111111   0.3166144), wk =   0.0109739
        k(   29) = (   0.1111111   0.1111111   0.4749216), wk =   0.0109739
        k(   30) = (   0.1111111   0.1111111   0.6332288), wk =   0.0109739
        k(   31) = (   0.1111111   0.2222222   0.0000000), wk =   0.0109739
        k(   32) = (   0.1111111   0.2222222   0.1583072), wk =   0.0219479
        k(   33) = (   0.1111111   0.2222222   0.3166144), wk =   0.0219479
        k(   34) = (   0.1111111   0.2222222   0.4749216), wk =   0.0219479
        k(   35) = (   0.1111111   0.2222222   0.6332288), wk =   0.0219479
        k(   36) = (   0.1111111   0.3333333   0.0000000), wk =   0.0109739
        k(   37) = (   0.1111111   0.3333333   0.1583072), wk =   0.0219479
        k(   38) = (   0.1111111   0.3333333   0.3166144), wk =   0.0219479
        k(   39) = (   0.1111111   0.3333333   0.4749216), wk =   0.0219479
        k(   40) = (   0.1111111   0.3333333   0.6332288), wk =   0.0219479
        k(   41) = (   0.1111111   0.4444444   0.0000000), wk =   0.0109739
        k(   42) = (   0.1111111   0.4444444   0.1583072), wk =   0.0219479
        k(   43) = (   0.1111111   0.4444444   0.3166144), wk =   0.0219479
        k(   44) = (   0.1111111   0.4444444   0.4749216), wk =   0.0219479
        k(   45) = (   0.1111111   0.4444444   0.6332288), wk =   0.0219479
        k(   46) = (   0.2222222   0.2222222   0.0000000), wk =   0.0054870
        k(   47) = (   0.2222222   0.2222222   0.1583072), wk =   0.0109739
        k(   48) = (   0.2222222   0.2222222   0.3166144), wk =   0.0109739
        k(   49) = (   0.2222222   0.2222222   0.4749216), wk =   0.0109739
        k(   50) = (   0.2222222   0.2222222   0.6332288), wk =   0.0109739
        k(   51) = (   0.2222222   0.3333333   0.0000000), wk =   0.0109739
        k(   52) = (   0.2222222   0.3333333   0.1583072), wk =   0.0219479
        k(   53) = (   0.2222222   0.3333333   0.3166144), wk =   0.0219479
        k(   54) = (   0.2222222   0.3333333   0.4749216), wk =   0.0219479
        k(   55) = (   0.2222222   0.3333333   0.6332288), wk =   0.0219479
        k(   56) = (   0.2222222   0.4444444   0.0000000), wk =   0.0109739
        k(   57) = (   0.2222222   0.4444444   0.1583072), wk =   0.0219479
        k(   58) = (   0.2222222   0.4444444   0.3166144), wk =   0.0219479
        k(   59) = (   0.2222222   0.4444444   0.4749216), wk =   0.0219479
        k(   60) = (   0.2222222   0.4444444   0.6332288), wk =   0.0219479
        k(   61) = (   0.3333333   0.3333333   0.0000000), wk =   0.0054870
        k(   62) = (   0.3333333   0.3333333   0.1583072), wk =   0.0109739
        k(   63) = (   0.3333333   0.3333333   0.3166144), wk =   0.0109739
        k(   64) = (   0.3333333   0.3333333   0.4749216), wk =   0.0109739
        k(   65) = (   0.3333333   0.3333333   0.6332288), wk =   0.0109739
        k(   66) = (   0.3333333   0.4444444   0.0000000), wk =   0.0109739
        k(   67) = (   0.3333333   0.4444444   0.1583072), wk =   0.0219479
        k(   68) = (   0.3333333   0.4444444   0.3166144), wk =   0.0219479
        k(   69) = (   0.3333333   0.4444444   0.4749216), wk =   0.0219479
        k(   70) = (   0.3333333   0.4444444   0.6332288), wk =   0.0219479
        k(   71) = (   0.4444444   0.4444444   0.0000000), wk =   0.0054870
        k(   72) = (   0.4444444   0.4444444   0.1583072), wk =   0.0109739
        k(   73) = (   0.4444444   0.4444444   0.3166144), wk =   0.0109739
        k(   74) = (   0.4444444   0.4444444   0.4749216), wk =   0.0109739
        k(   75) = (   0.4444444   0.4444444   0.6332288), wk =   0.0109739

                       cryst. coord.
        k(    1) = (   0.0000000   0.0000000   0.0000000), wk =   0.0013717
        k(    2) = (   0.0000000   0.0000000   0.1111111), wk =   0.0027435
        k(    3) = (   0.0000000   0.0000000   0.2222222), wk =   0.0027435
        k(    4) = (   0.0000000   0.0000000   0.3333333), wk =   0.0027435
        k(    5) = (   0.0000000   0.0000000   0.4444444), wk =   0.0027435
        k(    6) = (   0.0000000   0.1111111   0.0000000), wk =   0.0054870
        k(    7) = (   0.0000000   0.1111111   0.1111111), wk =   0.0109739
        k(    8) = (   0.0000000   0.1111111   0.2222222), wk =   0.0109739
        k(    9) = (   0.0000000   0.1111111   0.3333333), wk =   0.0109739
        k(   10) = (   0.0000000   0.1111111   0.4444444), wk =   0.0109739
        k(   11) = (   0.0000000   0.2222222   0.0000000), wk =   0.0054870
        k(   12) = (   0.0000000   0.2222222   0.1111111), wk =   0.0109739
        k(   13) = (   0.0000000   0.2222222   0.2222222), wk =   0.0109739
        k(   14) = (   0.0000000   0.2222222   0.3333333), wk =   0.0109739
        k(   15) = (   0.0000000   0.2222222   0.4444444), wk =   0.0109739
        k(   16) = (   0.0000000   0.3333333   0.0000000), wk =   0.0054870
        k(   17) = (   0.0000000   0.3333333   0.1111111), wk =   0.0109739
        k(   18) = (   0.0000000   0.3333333   0.2222222), wk =   0.0109739
        k(   19) = (   0.0000000   0.3333333   0.3333333), wk =   0.0109739
        k(   20) = (   0.0000000   0.3333333   0.4444444), wk =   0.0109739
        k(   21) = (   0.0000000   0.4444444   0.0000000), wk =   0.0054870
        k(   22) = (   0.0000000   0.4444444   0.1111111), wk =   0.0109739
        k(   23) = (   0.0000000   0.4444444   0.2222222), wk =   0.0109739
        k(   24) = (   0.0000000   0.4444444   0.3333333), wk =   0.0109739
        k(   25) = (   0.0000000   0.4444444   0.4444444), wk =   0.0109739
        k(   26) = (   0.1111111   0.1111111   0.0000000), wk =   0.0054870
        k(   27) = (   0.1111111   0.1111111   0.1111111), wk =   0.0109739
        k(   28) = (   0.1111111   0.1111111   0.2222222), wk =   0.0109739
        k(   29) = (   0.1111111   0.1111111   0.3333333), wk =   0.0109739
        k(   30) = (   0.1111111   0.1111111   0.4444444), wk =   0.0109739
        k(   31) = (   0.1111111   0.2222222   0.0000000), wk =   0.0109739
        k(   32) = (   0.1111111   0.2222222   0.1111111), wk =   0.0219479
        k(   33) = (   0.1111111   0.2222222   0.2222222), wk =   0.0219479
        k(   34) = (   0.1111111   0.2222222   0.3333333), wk =   0.0219479
        k(   35) = (   0.1111111   0.2222222   0.4444444), wk =   0.0219479
        k(   36) = (   0.1111111   0.3333333   0.0000000), wk =   0.0109739
        k(   37) = (   0.1111111   0.3333333   0.1111111), wk =   0.0219479
        k(   38) = (   0.1111111   0.3333333   0.2222222), wk =   0.0219479
        k(   39) = (   0.1111111   0.3333333   0.3333333), wk =   0.0219479
        k(   40) = (   0.1111111   0.3333333   0.4444444), wk =   0.0219479
        k(   41) = (   0.1111111   0.4444444   0.0000000), wk =   0.0109739
        k(   42) = (   0.1111111   0.4444444   0.1111111), wk =   0.0219479
        k(   43) = (   0.1111111   0.4444444   0.2222222), wk =   0.0219479
        k(   44) = (   0.1111111   0.4444444   0.3333333), wk =   0.0219479
        k(   45) = (   0.1111111   0.4444444   0.4444444), wk =   0.0219479
        k(   46) = (   0.2222222   0.2222222   0.0000000), wk =   0.0054870
        k(   47) = (   0.2222222   0.2222222   0.1111111), wk =   0.0109739
        k(   48) = (   0.2222222   0.2222222   0.2222222), wk =   0.0109739
        k(   49) = (   0.2222222   0.2222222   0.3333333), wk =   0.0109739
        k(   50) = (   0.2222222   0.2222222   0.4444444), wk =   0.0109739
        k(   51) = (   0.2222222   0.3333333   0.0000000), wk =   0.0109739
        k(   52) = (   0.2222222   0.3333333   0.1111111), wk =   0.0219479
        k(   53) = (   0.2222222   0.3333333   0.2222222), wk =   0.0219479
        k(   54) = (   0.2222222   0.3333333   0.3333333), wk =   0.0219479
        k(   55) = (   0.2222222   0.3333333   0.4444444), wk =   0.0219479
        k(   56) = (   0.2222222   0.4444444   0.0000000), wk =   0.0109739
        k(   57) = (   0.2222222   0.4444444   0.1111111), wk =   0.0219479
        k(   58) = (   0.2222222   0.4444444   0.2222222), wk =   0.0219479
        k(   59) = (   0.2222222   0.4444444   0.3333333), wk =   0.0219479
        k(   60) = (   0.2222222   0.4444444   0.4444444), wk =   0.0219479
        k(   61) = (   0.3333333   0.3333333   0.0000000), wk =   0.0054870
        k(   62) = (   0.3333333   0.3333333   0.1111111), wk =   0.0109739
        k(   63) = (   0.3333333   0.3333333   0.2222222), wk =   0.0109739
        k(   64) = (   0.3333333   0.3333333   0.3333333), wk =   0.0109739
        k(   65) = (   0.3333333   0.3333333   0.4444444), wk =   0.0109739
        k(   66) = (   0.3333333   0.4444444   0.0000000), wk =   0.0109739
        k(   67) = (   0.3333333   0.4444444   0.1111111), wk =   0.0219479
        k(   68) = (   0.3333333   0.4444444   0.2222222), wk =   0.0219479
        k(   69) = (   0.3333333   0.4444444   0.3333333), wk =   0.0219479
        k(   70) = (   0.3333333   0.4444444   0.4444444), wk =   0.0219479
        k(   71) = (   0.4444444   0.4444444   0.0000000), wk =   0.0054870
        k(   72) = (   0.4444444   0.4444444   0.1111111), wk =   0.0109739
        k(   73) = (   0.4444444   0.4444444   0.2222222), wk =   0.0109739
        k(   74) = (   0.4444444   0.4444444   0.3333333), wk =   0.0109739
        k(   75) = (   0.4444444   0.4444444   0.4444444), wk =   0.0109739

     Dense  grid:    42999 G-vectors     FFT dimensions: (  50,  50,  36)

     Dynamical RAM for                 wfc:       0.36 MB

     Dynamical RAM for     wfc (w. buffer):      27.11 MB

     Dynamical RAM for           str. fact:       0.04 MB

     Dynamical RAM for           local pot:       0.00 MB

     Dynamical RAM for          nlocal pot:       0.46 MB

     Dynamical RAM for                qrad:      20.10 MB

     Dynamical RAM for          rho,v,vnew:       0.70 MB

     Dynamical RAM for               rhoin:       0.23 MB

     Dynamical RAM for            rho*nmix:       1.31 MB

     Dynamical RAM for           G-vectors:       0.09 MB

     Dynamical RAM for          h,s,v(r/c):       0.04 MB

     Dynamical RAM for          <psi|beta>:       0.38 MB

     Dynamical RAM for                 psi:       0.71 MB

     Dynamical RAM for                hpsi:       0.71 MB

     Dynamical RAM for      wfcinit/wfcrot:       0.67 MB

     Estimated static dynamical RAM per process >      49.10 MB

     Estimated max dynamical RAM per process >      52.26 MB

     Estimated total dynamical RAM >       1.63 GB

     Initial potential from superposition of free atoms

     starting charge      57.9997, renormalised to      58.0000
     Starting wfcs are   72 randomized atomic wfcs

     total cpu time spent up to now is        4.0 secs

     Self-consistent Calculation

     iteration #  1     ecut=    80.00 Ry     beta= 0.70
     Davidson diagonalization with overlap

---- Real-time Memory Report at c_bands before calling an iterative solver
           103 MiB given to the printing process from OS
             0 MiB allocation reported by mallinfo(arena+hblkhd)
        228198 MiB available memory on the node where the printing process lives
------------------
     ethr =  1.00E-02,  avg # of iterations =  2.7

     total cpu time spent up to now is       17.0 secs

     total energy              =    -552.42732650 Ry
     estimated scf accuracy    <       1.21415026 Ry

     iteration #  2     ecut=    80.00 Ry     beta= 0.70
     Davidson diagonalization with overlap

---- Real-time Memory Report at c_bands before calling an iterative solver
           111 MiB given to the printing process from OS
             0 MiB allocation reported by mallinfo(arena+hblkhd)
        228033 MiB available memory on the node where the printing process lives
------------------
     ethr =  2.09E-03,  avg # of iterations =  2.0

     total cpu time spent up to now is       31.1 secs

     total energy              =    -552.28281153 Ry
     estimated scf accuracy    <       4.27998795 Ry

     iteration #  3     ecut=    80.00 Ry     beta= 0.70
     Davidson diagonalization with overlap

---- Real-time Memory Report at c_bands before calling an iterative solver
           112 MiB given to the printing process from OS
             0 MiB allocation reported by mallinfo(arena+hblkhd)
        228004 MiB available memory on the node where the printing process lives
------------------
     ethr =  2.09E-03,  avg # of iterations =  2.0

     total cpu time spent up to now is       44.3 secs

     total energy              =    -553.07568748 Ry
     estimated scf accuracy    <       0.03384852 Ry

     iteration #  4     ecut=    80.00 Ry     beta= 0.70
     Davidson diagonalization with overlap

---- Real-time Memory Report at c_bands before calling an iterative solver
           113 MiB given to the printing process from OS
             0 MiB allocation reported by mallinfo(arena+hblkhd)
        227993 MiB available memory on the node where the printing process lives
------------------
     ethr =  5.84E-05,  avg # of iterations =  2.4

     total cpu time spent up to now is       57.6 secs

     total energy              =    -553.07927335 Ry
     estimated scf accuracy    <       0.00484052 Ry

     iteration #  5     ecut=    80.00 Ry     beta= 0.70
     Davidson diagonalization with overlap

---- Real-time Memory Report at c_bands before calling an iterative solver
           114 MiB given to the printing process from OS
             0 MiB allocation reported by mallinfo(arena+hblkhd)
        227971 MiB available memory on the node where the printing process lives
------------------
     ethr =  8.35E-06,  avg # of iterations =  2.2

     total cpu time spent up to now is       69.4 secs

     total energy              =    -553.08012152 Ry
     estimated scf accuracy    <       0.00026346 Ry

     iteration #  6     ecut=    80.00 Ry     beta= 0.70
     Davidson diagonalization with overlap

---- Real-time Memory Report at c_bands before calling an iterative solver
           115 MiB given to the printing process from OS
             0 MiB allocation reported by mallinfo(arena+hblkhd)
        227927 MiB available memory on the node where the printing process lives
------------------
     ethr =  4.54E-07,  avg # of iterations =  2.8

     total cpu time spent up to now is       81.4 secs

     total energy              =    -553.08015363 Ry
     estimated scf accuracy    <       0.00001098 Ry

     iteration #  7     ecut=    80.00 Ry     beta= 0.70
     Davidson diagonalization with overlap

---- Real-time Memory Report at c_bands before calling an iterative solver
           115 MiB given to the printing process from OS
             0 MiB allocation reported by mallinfo(arena+hblkhd)
        227921 MiB available memory on the node where the printing process lives
------------------
     ethr =  1.89E-08,  avg # of iterations =  2.0

     total cpu time spent up to now is       95.1 secs

     total energy              =    -553.08015723 Ry
     estimated scf accuracy    <       0.00000058 Ry

     iteration #  8     ecut=    80.00 Ry     beta= 0.70
     Davidson diagonalization with overlap

---- Real-time Memory Report at c_bands before calling an iterative solver
           118 MiB given to the printing process from OS
             0 MiB allocation reported by mallinfo(arena+hblkhd)
        227853 MiB available memory on the node where the printing process lives
------------------
     ethr =  1.00E-09,  avg # of iterations =  2.1

     total cpu time spent up to now is      106.9 secs

     total energy              =    -553.08015725 Ry
     estimated scf accuracy    <       0.00000010 Ry

     iteration #  9     ecut=    80.00 Ry     beta= 0.70
     Davidson diagonalization with overlap

---- Real-time Memory Report at c_bands before calling an iterative solver
           118 MiB given to the printing process from OS
             0 MiB allocation reported by mallinfo(arena+hblkhd)
        227852 MiB available memory on the node where the printing process lives
------------------
     ethr =  1.74E-10,  avg # of iterations =  2.0

     total cpu time spent up to now is      119.9 secs

     total energy              =    -553.08015727 Ry
     estimated scf accuracy    <          4.2E-09 Ry

     iteration # 10     ecut=    80.00 Ry     beta= 0.70
     Davidson diagonalization with overlap

---- Real-time Memory Report at c_bands before calling an iterative solver
           119 MiB given to the printing process from OS
             0 MiB allocation reported by mallinfo(arena+hblkhd)
        227848 MiB available memory on the node where the printing process lives
------------------
     ethr =  7.17E-12,  avg # of iterations =  2.1

     total cpu time spent up to now is      133.2 secs

     End of self-consistent calculation

          k = 0.0000 0.0000 0.0000 (  5409 PWs)   bands (ev):

   -79.3839 -79.3839 -79.3826 -79.3826 -46.2265 -46.2265 -46.2157 -46.2157
   -32.7647 -32.7647 -32.7528 -32.7528 -32.6230 -32.6230 -32.6098 -32.6098
    -7.0731  -7.0731  -5.9172  -5.9172  -5.0023  -5.0023  -4.8008  -4.8008
     4.2700   4.2700   4.5177   4.5177   6.0334   6.0334   6.1449   6.1449
     6.2580   6.2580   8.7870   8.7870   8.9391   8.9391   9.1968   9.1968
    10.3341  10.3341  10.9896  10.9896  10.9927  10.9927  11.0321  11.0321
    11.2026  11.2026  11.3826  11.3826  11.6478  11.6478  11.6751  11.6751
    12.0582  12.0582  14.6453  14.6453  15.0700  15.0700  17.6891  17.6891
    17.8974  17.8974  18.0463  18.0463  19.4498  19.4498

     occupation numbers 
     1.0000   1.0000   1.0000   1.0000   1.0000   1.0000   1.0000   1.0000
     1.0000   1.0000   1.0000   1.0000   1.0000   1.0000   1.0000   1.0000
     1.0000   1.0000   1.0000   1.0000   1.0000   1.0000   1.0000   1.0000
     1.0000   1.0000   1.0000   1.0000   1.0000   1.0000   1.0000   1.0000
     1.0000   1.0000   1.0000   1.0000   1.0000   1.0000   1.0000   1.0000
     1.0000   1.0000   1.0000   1.0000   1.0000   1.0000   1.0000   1.0000
     1.0000   1.0000   1.0000   1.0000   1.0000   1.0000   1.0000   1.0000
     1.0000   1.0000  -0.0000  -0.0000  -0.0000  -0.0000  -0.0000  -0.0000
    -0.0000  -0.0000  -0.0000  -0.0000  -0.0000  -0.0000

          k = 0.0000 0.0000 0.1583 (  5361 PWs)   bands (ev):

   -79.3836 -79.3836 -79.3824 -79.3824 -46.2274 -46.2274 -46.2173 -46.2173
   -32.7672 -32.7672 -32.7594 -32.7594 -32.6282 -32.6282 -32.6123 -32.6123
    -6.9608  -6.9608  -5.8586  -5.8586  -5.0551  -5.0551  -4.8715  -4.8715
     4.4335   4.4335   4.6359   4.6359   6.1314   6.1314   6.2124   6.2124
     6.3770   6.3770   8.3488   8.3488   9.0290   9.0290   9.2835   9.2835
     9.6573   9.6573  10.2191  10.2191  10.3344  10.3344  11.3350  11.3350
    11.5915  11.5915  11.6105  11.6105  11.6936  11.6936  12.2630  12.2630
    12.3747  12.3747  14.9092  14.9092  14.9538  14.9538  17.3971  17.3971
    17.7175  17.7175  18.2274  18.2274  19.2245  19.2245

     occupation numbers 
     1.0000   1.0000   1.0000   1.0000   1.0000   1.0000   1.0000   1.0000
     1.0000   1.0000   1.0000   1.0000   1.0000   1.0000   1.0000   1.0000
     1.0000   1.0000   1.0000   1.0000   1.0000   1.0000   1.0000   1.0000
     1.0000   1.0000   1.0000   1.0000   1.0000   1.0000   1.0000   1.0000
     1.0000   1.0000   1.0000   1.0000   1.0000   1.0000   1.0000   1.0000
     1.0000   1.0000   1.0000   1.0000   1.0000   1.0000   1.0000   1.0000
     1.0000   1.0000   1.0000   1.0000   1.0000   1.0000   1.0000   1.0000
     1.0000   1.0000  -0.0000  -0.0000  -0.0000  -0.0000  -0.0000  -0.0000
    -0.0000  -0.0000  -0.0000  -0.0000  -0.0000  -0.0000

          k = 0.0000 0.0000 0.3166 (  5381 PWs)   bands (ev):

   -79.3828 -79.3828 -79.3818 -79.3818 -46.2298 -46.2298 -46.2216 -46.2216
   -32.7769 -32.7769 -32.7766 -32.7766 -32.6378 -32.6378 -32.6180 -32.6180
    -6.6555  -6.6555  -5.7243  -5.7243  -5.1823  -5.1823  -5.0470  -5.0470
     4.8902   4.8902   4.9497   4.9497   6.3898   6.3898   6.4054   6.4054
     6.7324   6.7324   7.4665   7.4665   8.5373   8.5373   9.2521   9.2521
     9.3608   9.3608   9.5314   9.5314   9.7357   9.7357  10.7773  10.7773
    11.7809  11.7809  11.8685  11.8685  12.0988  12.0988  13.0176  13.0176
    13.0375  13.0375  14.6261  14.6261  15.4967  15.4967  16.8021  16.8021
    17.0980  17.0980  18.1993  18.1993  19.5590  19.5590

     occupation numbers 
     1.0000   1.0000   1.0000   1.0000   1.0000   1.0000   1.0000   1.0000
     1.0000   1.0000   1.0000   1.0000   1.0000   1.0000   1.0000   1.0000
     1.0000   1.0000   1.0000   1.0000   1.0000   1.0000   1.0000   1.0000
     1.0000   1.0000   1.0000   1.0000   1.0000   1.0000   1.0000   1.0000
     1.0000   1.0000   1.0000   1.0000   1.0000   1.0000   1.0000   1.0000
     1.0000   1.0000   1.0000   1.0000   1.0000   1.0000   1.0000   1.0000
     1.0000   1.0000   1.0000   1.0000   1.0000   1.0000   1.0000   1.0000
     1.0000   1.0000  -0.0000  -0.0000  -0.0000  -0.0000  -0.0000  -0.0000
    -0.0000  -0.0000  -0.0000  -0.0000  -0.0000  -0.0000

          k = 0.0000 0.0000 0.4749 (  5385 PWs)   bands (ev):

   -79.3818 -79.3818 -79.3812 -79.3812 -46.2321 -46.2321 -46.2268 -46.2268
   -32.7975 -32.7975 -32.7932 -32.7932 -32.6416 -32.6416 -32.6245 -32.6245
    -6.2472  -6.2472  -5.6209  -5.6209  -5.3120  -5.3120  -5.2431  -5.2431
     5.3335   5.3335   5.5068   5.5068   6.5568   6.5568   6.7274   6.7274
     6.8446   6.8446   7.3052   7.3052   7.6374   7.6374   8.6720   8.6720
     8.8263   8.8263   9.6610   9.6610   9.9071   9.9071   9.9384   9.9384
    11.7962  11.7962  12.1870  12.1870  12.2722  12.2722  13.5543  13.5543
    13.6472  13.6472  14.1925  14.1925  15.9774  15.9774  16.3336  16.3336
    16.6288  16.6288  17.3649  17.3649  20.8850  20.8850

     occupation numbers 
     1.0000   1.0000   1.0000   1.0000   1.0000   1.0000   1.0000   1.0000
     1.0000   1.0000   1.0000   1.0000   1.0000   1.0000   1.0000   1.0000
     1.0000   1.0000   1.0000   1.0000   1.0000   1.0000   1.0000   1.0000
     1.0000   1.0000   1.0000   1.0000   1.0000   1.0000   1.0000   1.0000
     1.0000   1.0000   1.0000   1.0000   1.0000   1.0000   1.0000   1.0000
     1.0000   1.0000   1.0000   1.0000   1.0000   1.0000   1.0000   1.0000
     1.0000   1.0000   1.0000   1.0000   1.0000   1.0000   1.0000   1.0000
     1.0000   1.0000  -0.0000  -0.0000  -0.0000  -0.0000  -0.0000  -0.0000
    -0.0000  -0.0000  -0.0000  -0.0000  -0.0000  -0.0000

          k = 0.0000 0.0000 0.6332 (  5390 PWs)   bands (ev):

   -79.3811 -79.3811 -79.3809 -79.3809 -46.2329 -46.2329 -46.2310 -46.2310
   -32.8102 -32.8102 -32.8080 -32.8080 -32.6380 -32.6380 -32.6313 -32.6313
    -5.8676  -5.8676  -5.6493  -5.6493  -5.3914  -5.3914  -5.3760  -5.3760
     5.6283   5.6283   5.8101   5.8101   6.4889   6.4889   6.9387   6.9387
     7.0524   7.0524   7.0595   7.0595   8.0694   8.0694   8.2557   8.2557
     8.3487   8.3487   9.0015   9.0015   9.8902   9.8902   9.9871   9.9871
    11.8215  11.8215  12.0071  12.0071  12.7960  12.7960  13.3597  13.3597
    14.0426  14.0426  14.1209  14.1209  16.0904  16.0904  16.1252  16.1252
    16.5380  16.5380  16.7586  16.7586  22.2813  22.2813

     occupation numbers 
     1.0000   1.0000   1.0000   1.0000   1.0000   1.0000   1.0000   1.0000
     1.0000   1.0000   1.0000   1.0000   1.0000   1.0000   1.0000   1.0000
     1.0000   1.0000   1.0000   1.0000   1.0000   1.0000   1.0000   1.0000
     1.0000   1.0000   1.0000   1.0000   1.0000   1.0000   1.0000   1.0000
     1.0000   1.0000   1.0000   1.0000   1.0000   1.0000   1.0000   1.0000
     1.0000   1.0000   1.0000   1.0000   1.0000   1.0000   1.0000   1.0000
     1.0000   1.0000   1.0000   1.0000   1.0000   1.0000   1.0000   1.0000
    -0.0007  -0.0007  -0.0000  -0.0000  -0.0000  -0.0000  -0.0000  -0.0000
    -0.0000  -0.0000  -0.0000  -0.0000  -0.0000  -0.0000

          k = 0.0000 0.1111 0.0000 (  5373 PWs)   bands (ev):

   -79.3839 -79.3839 -79.3826 -79.3826 -46.2261 -46.2261 -46.2160 -46.2160
   -32.7640 -32.7640 -32.7528 -32.7528 -32.6230 -32.6230 -32.6107 -32.6107
    -7.0264  -7.0264  -5.9109  -5.9109  -5.0426  -5.0426  -4.8488  -4.8488
     4.3897   4.3897   4.6076   4.6076   6.0519   6.0519   6.1558   6.1558
     6.3349   6.3349   8.7293   8.7293   8.7581   8.7581   9.0221   9.0221
    10.0700  10.0700  10.5631  10.5631  10.7856  10.7856  11.3091  11.3091
    11.3868  11.3868  11.5556  11.5556  11.6766  11.6766  11.8166  11.8166
    12.2232  12.2232  14.8428  14.8428  14.9848  14.9848  17.6431  17.6431
    17.9793  17.9793  18.1136  18.1136  19.3380  19.3380

     occupation numbers 
     1.0000   1.0000   1.0000   1.0000   1.0000   1.0000   1.0000   1.0000
     1.0000   1.0000   1.0000   1.0000   1.0000   1.0000   1.0000   1.0000
     1.0000   1.0000   1.0000   1.0000   1.0000   1.0000   1.0000   1.0000
     1.0000   1.0000   1.0000   1.0000   1.0000   1.0000   1.0000   1.0000
     1.0000   1.0000   1.0000   1.0000   1.0000   1.0000   1.0000   1.0000
     1.0000   1.0000   1.0000   1.0000   1.0000   1.0000   1.0000   1.0000
     1.0000   1.0000   1.0000   1.0000   1.0000   1.0000   1.0000   1.0000
     1.0000   1.0000  -0.0000  -0.0000  -0.0000  -0.0000  -0.0000  -0.0000
    -0.0000  -0.0000  -0.0000  -0.0000  -0.0000  -0.0000

          k = 0.0000 0.1111 0.1583 (  5372 PWs)   bands (ev):

   -79.3836 -79.3836 -79.3824 -79.3824 -46.2271 -46.2271 -46.2177 -46.2177
   -32.7671 -32.7671 -32.7588 -32.7588 -32.6282 -32.6282 -32.6131 -32.6131
    -6.9157  -6.9157  -5.8504  -5.8504  -5.0941  -5.0941  -4.9167  -4.9167
     4.5437   4.5437   4.7248   4.7248   6.1358   6.1358   6.2115   6.2115
     6.4802   6.4802   8.2754   8.2754   8.8469   8.8469   9.1037   9.1037
     9.4794   9.4794  10.2058  10.2058  10.2671  10.2671  11.3759  11.3759
    11.4855  11.4855  11.7846  11.7846  11.8416  11.8416  12.2730  12.2730
    12.4919  12.4919  14.8612  14.8612  15.0989  15.0989  17.3104  17.3104
    17.6260  17.6260  18.4860  18.4860  19.1408  19.1408

     occupation numbers 
     1.0000   1.0000   1.0000   1.0000   1.0000   1.0000   1.0000   1.0000
     1.0000   1.0000   1.0000   1.0000   1.0000   1.0000   1.0000   1.0000
     1.0000   1.0000   1.0000   1.0000   1.0000   1.0000   1.0000   1.0000
     1.0000   1.0000   1.0000   1.0000   1.0000   1.0000   1.0000   1.0000
     1.0000   1.0000   1.0000   1.0000   1.0000   1.0000   1.0000   1.0000
     1.0000   1.0000   1.0000   1.0000   1.0000   1.0000   1.0000   1.0000
     1.0000   1.0000   1.0000   1.0000   1.0000   1.0000   1.0000   1.0000
     1.0000   1.0000  -0.0000  -0.0000  -0.0000  -0.0000  -0.0000  -0.0000
    -0.0000  -0.0000  -0.0000  -0.0000  -0.0000  -0.0000

          k = 0.0000 0.1111 0.3166 (  5371 PWs)   bands (ev):

   -79.3828 -79.3828 -79.3818 -79.3818 -46.2296 -46.2296 -46.2218 -46.2218
   -32.7803 -32.7803 -32.7729 -32.7729 -32.6378 -32.6378 -32.6185 -32.6185
    -6.6162  -6.6162  -5.7126  -5.7126  -5.2165  -5.2165  -5.0832  -5.0832
     4.9665   4.9665   5.0372   5.0372   6.3632   6.3632   6.4072   6.4072
     6.8672   6.8672   7.4052   7.4052   8.2946   8.2946   9.1591   9.1591
     9.4265   9.4265   9.5338   9.5338   9.5969   9.5969  10.8905  10.8905
    11.6582  11.6582  11.9816  11.9816  12.2004  12.2004  12.9520  12.9520
    13.0983  13.0983  14.5615  14.5615  15.6404  15.6404  16.6735  16.6735
    17.0058  17.0058  18.3434  18.3434  19.6579  19.6579

     occupation numbers 
     1.0000   1.0000   1.0000   1.0000   1.0000   1.0000   1.0000   1.0000
     1.0000   1.0000   1.0000   1.0000   1.0000   1.0000   1.0000   1.0000
     1.0000   1.0000   1.0000   1.0000   1.0000   1.0000   1.0000   1.0000
     1.0000   1.0000   1.0000   1.0000   1.0000   1.0000   1.0000   1.0000
     1.0000   1.0000   1.0000   1.0000   1.0000   1.0000   1.0000   1.0000
     1.0000   1.0000   1.0000   1.0000   1.0000   1.0000   1.0000   1.0000
     1.0000   1.0000   1.0000   1.0000   1.0000   1.0000   1.0000   1.0000
     1.0000   1.0000  -0.0000  -0.0000  -0.0000  -0.0000  -0.0000  -0.0000
    -0.0000  -0.0000  -0.0000  -0.0000  -0.0000  -0.0000

          k = 0.0000 0.1111 0.4749 (  5389 PWs)   bands (ev):

   -79.3818 -79.3818 -79.3812 -79.3812 -46.2320 -46.2320 -46.2269 -46.2269
   -32.8006 -32.8006 -32.7901 -32.7901 -32.6417 -32.6417 -32.6245 -32.6245
    -6.2207  -6.2207  -5.6182  -5.6182  -5.3342  -5.3342  -5.2561  -5.2561
     5.3912   5.3912   5.5447   5.5447   6.4127   6.4127   6.7111   6.7111
     6.9278   6.9278   7.4284   7.4284   7.5131   7.5131   8.7213   8.7213
     8.8803   8.8803   9.5596   9.5596   9.7823   9.7823  10.0836  10.0836
    11.8526  11.8526  12.1532  12.1532  12.2325  12.2325  13.4206  13.4206
    13.6638  13.6638  14.2209  14.2209  15.9571  15.9571  16.1435  16.1435
    16.6614  16.6614  17.6375  17.6375  20.9648  20.9648

     occupation numbers 
     1.0000   1.0000   1.0000   1.0000   1.0000   1.0000   1.0000   1.0000
     1.0000   1.0000   1.0000   1.0000   1.0000   1.0000   1.0000   1.0000
     1.0000   1.0000   1.0000   1.0000   1.0000   1.0000   1.0000   1.0000
     1.0000   1.0000   1.0000   1.0000   1.0000   1.0000   1.0000   1.0000
     1.0000   1.0000   1.0000   1.0000   1.0000   1.0000   1.0000   1.0000
     1.0000   1.0000   1.0000   1.0000   1.0000   1.0000   1.0000   1.0000
     1.0000   1.0000   1.0000   1.0000   1.0000   1.0000   1.0000   1.0000
     1.0001   1.0001  -0.0000  -0.0000  -0.0000  -0.0000  -0.0000  -0.0000
    -0.0000  -0.0000  -0.0000  -0.0000  -0.0000  -0.0000

          k = 0.0000 0.1111 0.6332 (  5370 PWs)   bands (ev):

   -79.3811 -79.3811 -79.3809 -79.3809 -46.2329 -46.2329 -46.2310 -46.2310
   -32.8145 -32.8145 -32.8038 -32.8038 -32.6393 -32.6393 -32.6300 -32.6300
    -5.8664  -5.8664  -5.6670  -5.6670  -5.4095  -5.4095  -5.3381  -5.3381
     5.6516   5.6516   5.8271   5.8271   6.2693   6.2693   6.6399   6.6399
     7.2648   7.2648   7.2935   7.2935   8.1783   8.1783   8.2494   8.2494
     8.4270   8.4270   9.1277   9.1277   9.8176   9.8176   9.9007   9.9007
    11.8397  11.8397  12.0066  12.0066  12.6503  12.6503  13.2081  13.2081
    13.9998  13.9998  14.2426  14.2426  15.7834  15.7834  15.8917  15.8917
    16.8159  16.8159  17.1598  17.1598  22.3160  22.3160

     occupation numbers 
     1.0000   1.0000   1.0000   1.0000   1.0000   1.0000   1.0000   1.0000
     1.0000   1.0000   1.0000   1.0000   1.0000   1.0000   1.0000   1.0000
     1.0000   1.0000   1.0000   1.0000   1.0000   1.0000   1.0000   1.0000
     1.0000   1.0000   1.0000   1.0000   1.0000   1.0000   1.0000   1.0000
     1.0000   1.0000   1.0000   1.0000   1.0000   1.0000   1.0000   1.0000
     1.0000   1.0000   1.0000   1.0000   1.0000   1.0000   1.0000   1.0000
     1.0000   1.0000   1.0000   1.0000   1.0000   1.0000   1.0000   1.0000
    -0.0083  -0.0083  -0.0000  -0.0000  -0.0000  -0.0000  -0.0000  -0.0000
    -0.0000  -0.0000  -0.0000  -0.0000  -0.0000  -0.0000

          k = 0.0000 0.2222 0.0000 (  5367 PWs)   bands (ev):

   -79.3838 -79.3838 -79.3827 -79.3827 -46.2252 -46.2252 -46.2170 -46.2170
   -32.7620 -32.7620 -32.7529 -32.7529 -32.6230 -32.6230 -32.6129 -32.6129
    -6.8905  -6.8905  -5.9075  -5.9075  -5.1560  -5.1560  -4.9625  -4.9625
     4.7190   4.7190   4.8646   4.8646   6.0982   6.0982   6.1840   6.1840
     6.5676   6.5676   8.3032   8.3032   8.4772   8.4772   8.7132   8.7132
     9.6239   9.6239   9.8389   9.8389  10.6295  10.6295  11.4175  11.4175
    11.6264  11.6264  11.7260  11.7260  11.9734  11.9734  12.1265  12.1265
    12.5481  12.5481  14.6999  14.6999  15.4170  15.4170  17.5103  17.5103
    17.8044  17.8044  18.6987  18.6987  19.0143  19.0143

     occupation numbers 
     1.0000   1.0000   1.0000   1.0000   1.0000   1.0000   1.0000   1.0000
     1.0000   1.0000   1.0000   1.0000   1.0000   1.0000   1.0000   1.0000
     1.0000   1.0000   1.0000   1.0000   1.0000   1.0000   1.0000   1.0000
     1.0000   1.0000   1.0000   1.0000   1.0000   1.0000   1.0000   1.0000
     1.0000   1.0000   1.0000   1.0000   1.0000   1.0000   1.0000   1.0000
     1.0000   1.0000   1.0000   1.0000   1.0000   1.0000   1.0000   1.0000
     1.0000   1.0000   1.0000   1.0000   1.0000   1.0000   1.0000   1.0000
     1.0000   1.0000  -0.0000  -0.0000  -0.0000  -0.0000  -0.0000  -0.0000
    -0.0000  -0.0000  -0.0000  -0.0000  -0.0000  -0.0000

          k = 0.0000 0.2222 0.1583 (  5360 PWs)   bands (ev):

   -79.3835 -79.3835 -79.3825 -79.3825 -46.2263 -46.2263 -46.2185 -46.2185
   -32.7669 -32.7669 -32.7574 -32.7574 -32.6282 -32.6282 -32.6150 -32.6150
    -6.7844  -6.7844  -5.8392  -5.8392  -5.2070  -5.2070  -5.0231  -5.0231
     4.8485   4.8485   4.9808   4.9808   6.1643   6.1643   6.2253   6.2253
     6.7343   6.7343   8.1426   8.1426   8.3999   8.3999   8.6642   8.6642
     8.9945   8.9945   9.9298   9.9298  10.3349  10.3349  11.2656  11.2656
    11.6457  11.6457  12.0221  12.0221  12.0874  12.0874  12.3867  12.3867
    12.7560  12.7560  14.6081  14.6081  15.5966  15.5966  17.1210  17.1210
    17.4440  17.4440  18.8636  18.8636  19.1102  19.1102

     occupation numbers 
     1.0000   1.0000   1.0000   1.0000   1.0000   1.0000   1.0000   1.0000
     1.0000   1.0000   1.0000   1.0000   1.0000   1.0000   1.0000   1.0000
     1.0000   1.0000   1.0000   1.0000   1.0000   1.0000   1.0000   1.0000
     1.0000   1.0000   1.0000   1.0000   1.0000   1.0000   1.0000   1.0000
     1.0000   1.0000   1.0000   1.0000   1.0000   1.0000   1.0000   1.0000
     1.0000   1.0000   1.0000   1.0000   1.0000   1.0000   1.0000   1.0000
     1.0000   1.0000   1.0000   1.0000   1.0000   1.0000   1.0000   1.0000
     1.0000   1.0000  -0.0000  -0.0000  -0.0000  -0.0000  -0.0000  -0.0000
    -0.0000  -0.0000  -0.0000  -0.0000  -0.0000  -0.0000

          k = 0.0000 0.2222 0.3166 (  5377 PWs)   bands (ev):

   -79.3827 -79.3827 -79.3819 -79.3819 -46.2289 -46.2289 -46.2225 -46.2225
   -32.7831 -32.7831 -32.7692 -32.7692 -32.6377 -32.6377 -32.6198 -32.6198
    -6.5015  -6.5015  -5.6836  -5.6836  -5.3252  -5.3252  -5.1669  -5.1669
     5.1874   5.1874   5.2814   5.2814   6.3546   6.3546   6.4194   6.4194
     7.0798   7.0798   7.3674   7.3674   7.8416   7.8416   8.7342   8.7342
     9.0566   9.0566   9.6001   9.6001   9.7628   9.7628  11.1084  11.1084
    11.3997  11.3997  12.2536  12.2536  12.3944  12.3944  12.8289  12.8289
    13.2378  13.2378  14.3794  14.3794  15.9651  15.9651  16.3906  16.3906
    16.8876  16.8876  18.4728  18.4728  20.0311  20.0311

     occupation numbers 
     1.0000   1.0000   1.0000   1.0000   1.0000   1.0000   1.0000   1.0000
     1.0000   1.0000   1.0000   1.0000   1.0000   1.0000   1.0000   1.0000
     1.0000   1.0000   1.0000   1.0000   1.0000   1.0000   1.0000   1.0000
     1.0000   1.0000   1.0000   1.0000   1.0000   1.0000   1.0000   1.0000
     1.0000   1.0000   1.0000   1.0000   1.0000   1.0000   1.0000   1.0000
     1.0000   1.0000   1.0000   1.0000   1.0000   1.0000   1.0000   1.0000
     1.0000   1.0000   1.0000   1.0000   1.0000   1.0000   1.0000   1.0000
     1.0000   1.0000  -0.0000  -0.0000  -0.0000  -0.0000  -0.0000  -0.0000
    -0.0000  -0.0000  -0.0000  -0.0000  -0.0000  -0.0000

          k = 0.0000 0.2222 0.4749 (  5372 PWs)   bands (ev):

   -79.3818 -79.3818 -79.3813 -79.3813 -46.2316 -46.2316 -46.2274 -46.2274
   -32.8044 -32.8044 -32.7861 -32.7861 -32.6422 -32.6422 -32.6244 -32.6244
    -6.1444  -6.1444  -5.6152  -5.6152  -5.3969  -5.3969  -5.2877  -5.2877
     5.5455   5.5455   5.6566   5.6566   6.2265   6.2265   6.6292   6.6292
     7.0510   7.0510   7.1907   7.1907   7.7937   7.7937   8.6834   8.6834
     9.0179   9.0179   9.3596   9.3596   9.5797   9.5797  10.4237  10.4237
    11.6774  11.6774  12.1437  12.1437  12.3103  12.3103  13.0895  13.0895
    13.7421  13.7421  14.2436  14.2436  15.7154  15.7154  15.8820  15.8820
    16.9703  16.9703  18.0310  18.0310  21.2137  21.2137

     occupation numbers 
     1.0000   1.0000   1.0000   1.0000   1.0000   1.0000   1.0000   1.0000
     1.0000   1.0000   1.0000   1.0000   1.0000   1.0000   1.0000   1.0000
     1.0000   1.0000   1.0000   1.0000   1.0000   1.0000   1.0000   1.0000
     1.0000   1.0000   1.0000   1.0000   1.0000   1.0000   1.0000   1.0000
     1.0000   1.0000   1.0000   1.0000   1.0000   1.0000   1.0000   1.0000
     1.0000   1.0000   1.0000   1.0000   1.0000   1.0000   1.0000   1.0000
     1.0000   1.0000   1.0000   1.0000   1.0000   1.0000   1.0000   1.0000
     1.0144   1.0144  -0.0000  -0.0000  -0.0000  -0.0000  -0.0000  -0.0000
    -0.0000  -0.0000  -0.0000  -0.0000  -0.0000  -0.0000

          k = 0.0000 0.2222 0.6332 (  5368 PWs)   bands (ev):

   -79.3811 -79.3811 -79.3809 -79.3809 -46.2329 -46.2329 -46.2310 -46.2310
   -32.8192 -32.8192 -32.7993 -32.7993 -32.6416 -32.6416 -32.6277 -32.6277
    -5.8620  -5.8620  -5.7099  -5.7099  -5.4108  -5.4108  -5.2901  -5.2901
     5.6782   5.6782   5.8162   5.8162   6.0415   6.0415   6.3453   6.3453
     7.4234   7.4234   7.5951   7.5951   8.1234   8.1234   8.4517   8.4517
     8.7553   8.7553   9.3806   9.3806   9.6731   9.6731   9.7446   9.7446
    11.8524  11.8524  11.9821  11.9821  12.2967  12.2967  12.8304  12.8304
    14.0341  14.0341  14.3688  14.3688  15.4205  15.4205  15.5449  15.5449
    17.3290  17.3290  17.7047  17.7047  22.4226  22.4226

     occupation numbers 
     1.0000   1.0000   1.0000   1.0000   1.0000   1.0000   1.0000   1.0000
     1.0000   1.0000   1.0000   1.0000   1.0000   1.0000   1.0000   1.0000
     1.0000   1.0000   1.0000   1.0000   1.0000   1.0000   1.0000   1.0000
     1.0000   1.0000   1.0000   1.0000   1.0000   1.0000   1.0000   1.0000
     1.0000   1.0000   1.0000   1.0000   1.0000   1.0000   1.0000   1.0000
     1.0000   1.0000   1.0000   1.0000   1.0000   1.0000   1.0000   1.0000
     1.0000   1.0000   1.0000   1.0000   1.0000   1.0000   1.0000   1.0000
    -0.0012  -0.0012  -0.0000  -0.0000  -0.0000  -0.0000  -0.0000  -0.0000
    -0.0000  -0.0000  -0.0000  -0.0000  -0.0000  -0.0000

          k = 0.0000 0.3333 0.0000 (  5372 PWs)   bands (ev):

   -79.3836 -79.3836 -79.3829 -79.3829 -46.2238 -46.2238 -46.2184 -46.2184
   -32.7593 -32.7593 -32.7534 -32.7534 -32.6225 -32.6225 -32.6160 -32.6160
    -6.6784  -6.6784  -5.9652  -5.9652  -5.2764  -5.2764  -5.0932  -5.0932
     5.1646   5.1646   5.2441   5.2441   6.1589   6.1589   6.2168   6.2168
     6.9467   6.9467   7.7716   7.7716   7.9157   7.9157   8.6264   8.6264
     9.0215   9.0215   9.2206   9.2206  10.6181  10.6181  11.1883  11.1883
    11.8982  11.8982  12.0136  12.0136  12.2292  12.2292  12.4126  12.4126
    12.9447  12.9447  14.3172  14.3172  16.1662  16.1662  17.3614  17.3614
    17.5886  17.5886  18.4863  18.4863  19.5078  19.5078

     occupation numbers 
     1.0000   1.0000   1.0000   1.0000   1.0000   1.0000   1.0000   1.0000
     1.0000   1.0000   1.0000   1.0000   1.0000   1.0000   1.0000   1.0000
     1.0000   1.0000   1.0000   1.0000   1.0000   1.0000   1.0000   1.0000
     1.0000   1.0000   1.0000   1.0000   1.0000   1.0000   1.0000   1.0000
     1.0000   1.0000   1.0000   1.0000   1.0000   1.0000   1.0000   1.0000
     1.0000   1.0000   1.0000   1.0000   1.0000   1.0000   1.0000   1.0000
     1.0000   1.0000   1.0000   1.0000   1.0000   1.0000   1.0000   1.0000
     1.0000   1.0000  -0.0000  -0.0000  -0.0000  -0.0000  -0.0000  -0.0000
    -0.0000  -0.0000  -0.0000  -0.0000  -0.0000  -0.0000

          k = 0.0000 0.3333 0.1583 (  5385 PWs)   bands (ev):

   -79.3833 -79.3833 -79.3827 -79.3827 -46.2250 -46.2250 -46.2199 -46.2199
   -32.7666 -32.7666 -32.7558 -32.7558 -32.6280 -32.6280 -32.6175 -32.6175
    -6.5794  -6.5794  -5.8843  -5.8843  -5.3299  -5.3299  -5.1452  -5.1452
     5.2681   5.2681   5.3661   5.3661   6.1950   6.1950   6.2433   6.2433
     7.0819   7.0819   7.8978   7.8978   8.0273   8.0273   8.1986   8.1986
     8.4255   8.4255   9.3831   9.3831  10.5393  10.5393  11.1205  11.1205
    11.8659  11.8659  12.0734  12.0734  12.4065  12.4065  12.6196  12.6196
    13.0714  13.0714  14.2475  14.2475  16.2438  16.2438  16.9412  16.9412
    17.2494  17.2494  18.4426  18.4426  19.8815  19.8815

     occupation numbers 
     1.0000   1.0000   1.0000   1.0000   1.0000   1.0000   1.0000   1.0000
     1.0000   1.0000   1.0000   1.0000   1.0000   1.0000   1.0000   1.0000
     1.0000   1.0000   1.0000   1.0000   1.0000   1.0000   1.0000   1.0000
     1.0000   1.0000   1.0000   1.0000   1.0000   1.0000   1.0000   1.0000
     1.0000   1.0000   1.0000   1.0000   1.0000   1.0000   1.0000   1.0000
     1.0000   1.0000   1.0000   1.0000   1.0000   1.0000   1.0000   1.0000
     1.0000   1.0000   1.0000   1.0000   1.0000   1.0000   1.0000   1.0000
     1.0000   1.0000  -0.0000  -0.0000  -0.0000  -0.0000  -0.0000  -0.0000
    -0.0000  -0.0000  -0.0000  -0.0000  -0.0000  -0.0000

          k = 0.0000 0.3333 0.3166 (  5374 PWs)   bands (ev):

   -79.3825 -79.3825 -79.3820 -79.3820 -46.2279 -46.2279 -46.2236 -46.2236
   -32.7850 -32.7850 -32.7662 -32.7662 -32.6375 -32.6375 -32.6213 -32.6213
    -6.3222  -6.3222  -5.6865  -5.6865  -5.4604  -5.4604  -5.2626  -5.2626
     5.5184   5.5184   5.6329   5.6329   6.3571   6.3571   6.4637   6.4637
     6.9736   6.9736   7.3713   7.3713   7.7487   7.7487   8.2683   8.2683
     8.5575   8.5575   9.4009   9.4009  10.0958  10.0958  10.8914  10.8914
    11.6524  11.6524  12.3703  12.3703  12.5431  12.5431  12.8351  12.8351
    13.3975  13.3975  14.1422  14.1422  16.0501  16.0501  16.2153  16.2153
    17.0292  17.0292  18.3413  18.3413  20.6741  20.6741

     occupation numbers 
     1.0000   1.0000   1.0000   1.0000   1.0000   1.0000   1.0000   1.0000
     1.0000   1.0000   1.0000   1.0000   1.0000   1.0000   1.0000   1.0000
     1.0000   1.0000   1.0000   1.0000   1.0000   1.0000   1.0000   1.0000
     1.0000   1.0000   1.0000   1.0000   1.0000   1.0000   1.0000   1.0000
     1.0000   1.0000   1.0000   1.0000   1.0000   1.0000   1.0000   1.0000
     1.0000   1.0000   1.0000   1.0000   1.0000   1.0000   1.0000   1.0000
     1.0000   1.0000   1.0000   1.0000   1.0000   1.0000   1.0000   1.0000
     1.0000   1.0000  -0.0000  -0.0000  -0.0000  -0.0000  -0.0000  -0.0000
    -0.0000  -0.0000  -0.0000  -0.0000  -0.0000  -0.0000

          k = 0.0000 0.3333 0.4749 (  5365 PWs)   bands (ev):

   -79.3817 -79.3817 -79.3813 -79.3813 -46.2310 -46.2310 -46.2280 -46.2280
   -32.8074 -32.8074 -32.7830 -32.7830 -32.6426 -32.6426 -32.6244 -32.6244
    -6.0277  -6.0277  -5.6407  -5.6407  -5.4677  -5.4677  -5.3253  -5.3253
     5.7350   5.7350   5.8317   5.8317   6.1165   6.1165   6.4736   6.4736
     6.9399   6.9399   7.2110   7.2110   8.0461   8.0461   8.6151   8.6151
     8.9370   8.9370   9.1625   9.1625   9.6937   9.6937  10.7645  10.7645
    11.3165  11.3165  12.2361  12.2361  12.3352  12.3352  12.7767  12.7767
    13.8143  13.8143  14.2530  14.2530  15.4344  15.4344  15.6542  15.6542
    17.4282  17.4282  18.2400  18.2400  21.6405  21.6405

     occupation numbers 
     1.0000   1.0000   1.0000   1.0000   1.0000   1.0000   1.0000   1.0000
     1.0000   1.0000   1.0000   1.0000   1.0000   1.0000   1.0000   1.0000
     1.0000   1.0000   1.0000   1.0000   1.0000   1.0000   1.0000   1.0000
     1.0000   1.0000   1.0000   1.0000   1.0000   1.0000   1.0000   1.0000
     1.0000   1.0000   1.0000   1.0000   1.0000   1.0000   1.0000   1.0000
     1.0000   1.0000   1.0000   1.0000   1.0000   1.0000   1.0000   1.0000
     1.0000   1.0000   1.0000   1.0000   1.0000   1.0000   1.0000   1.0000
     0.9728   0.9728  -0.0000  -0.0000  -0.0000  -0.0000  -0.0000  -0.0000
    -0.0000  -0.0000  -0.0000  -0.0000  -0.0000  -0.0000

          k = 0.0000 0.3333 0.6332 (  5367 PWs)   bands (ev):

   -79.3811 -79.3811 -79.3809 -79.3809 -46.2329 -46.2329 -46.2310 -46.2310
   -32.8227 -32.8227 -32.7961 -32.7961 -32.6435 -32.6435 -32.6258 -32.6258
    -5.8517  -5.8517  -5.7589  -5.7589  -5.4004  -5.4004  -5.2521  -5.2521
     5.6016   5.6016   5.6768   5.6768   6.0848   6.0848   6.2234   6.2234
     7.4535   7.4535   7.9277   7.9277   8.0300   8.0300   8.6108   8.6108
     9.1380   9.1380   9.1947   9.1947   9.6259   9.6259  10.1510  10.1510
    11.5777  11.5777  11.9228  11.9228  11.9770  11.9770  12.4484  12.4484
    14.0886  14.0886  14.4465  14.4465  15.1620  15.1620  15.2845  15.2845
    17.8185  17.8185  18.1330  18.1330  22.6124  22.6124

     occupation numbers 
     1.0000   1.0000   1.0000   1.0000   1.0000   1.0000   1.0000   1.0000
     1.0000   1.0000   1.0000   1.0000   1.0000   1.0000   1.0000   1.0000
     1.0000   1.0000   1.0000   1.0000   1.0000   1.0000   1.0000   1.0000
     1.0000   1.0000   1.0000   1.0000   1.0000   1.0000   1.0000   1.0000
     1.0000   1.0000   1.0000   1.0000   1.0000   1.0000   1.0000   1.0000
     1.0000   1.0000   1.0000   1.0000   1.0000   1.0000   1.0000   1.0000
     1.0000   1.0000   1.0000   1.0000   1.0000   1.0000   1.0000   1.0000
    -0.0000  -0.0000  -0.0000  -0.0000  -0.0000  -0.0000  -0.0000  -0.0000
    -0.0000  -0.0000  -0.0000  -0.0000  -0.0000  -0.0000

          k = 0.0000 0.4444 0.0000 (  5372 PWs)   bands (ev):

   -79.3834 -79.3834 -79.3831 -79.3831 -46.2221 -46.2221 -46.2202 -46.2202
   -32.7566 -32.7566 -32.7546 -32.7546 -32.6213 -32.6213 -32.6190 -32.6190
    -6.4158  -6.4158  -6.1505  -6.1505  -5.2940  -5.2940  -5.2143  -5.2143
     5.5494   5.5494   5.5891   5.5891   6.2219   6.2219   6.2403   6.2403
     7.2481   7.2481   7.3989   7.3989   7.6102   7.6102   8.2368   8.2368
     8.6916   8.6916   8.8890   8.8890  10.7348  10.7348  10.9409  10.9409
    12.0751  12.0751  12.1335  12.1335  12.4380  12.4380  12.5287  12.5287
    13.3999  13.3999  13.8698  13.8698  16.9521  16.9521  17.2772  17.2772
    17.4360  17.4360  17.8282  17.8282  20.3636  20.3636

     occupation numbers 
     1.0000   1.0000   1.0000   1.0000   1.0000   1.0000   1.0000   1.0000
     1.0000   1.0000   1.0000   1.0000   1.0000   1.0000   1.0000   1.0000
     1.0000   1.0000   1.0000   1.0000   1.0000   1.0000   1.0000   1.0000
     1.0000   1.0000   1.0000   1.0000   1.0000   1.0000   1.0000   1.0000
     1.0000   1.0000   1.0000   1.0000   1.0000   1.0000   1.0000   1.0000
     1.0000   1.0000   1.0000   1.0000   1.0000   1.0000   1.0000   1.0000
     1.0000   1.0000   1.0000   1.0000   1.0000   1.0000   1.0000   1.0000
     1.0000   1.0000   0.4348   0.4348  -0.0000  -0.0000  -0.0000  -0.0000
    -0.0000  -0.0000  -0.0000  -0.0000  -0.0000  -0.0000

          k = 0.0000 0.4444 0.1583 (  5377 PWs)   bands (ev):

   -79.3831 -79.3831 -79.3829 -79.3829 -46.2234 -46.2234 -46.2215 -46.2215
   -32.7663 -32.7663 -32.7548 -32.7548 -32.6276 -32.6276 -32.6194 -32.6194
    -6.3248  -6.3248  -6.0634  -6.0634  -5.3449  -5.3449  -5.2600  -5.2600
     5.6562   5.6562   5.7517   5.7517   6.1745   6.1745   6.2110   6.2110
     7.4331   7.4331   7.5621   7.5621   7.6586   7.6586   7.9206   7.9206
     8.3344   8.3344   8.8007   8.8007  10.7528  10.7528  10.9511  10.9511
    12.0090  12.0090  12.0726  12.0726  12.6391  12.6391  12.7773  12.7773
    13.4021  13.4021  13.8542  13.8542  16.6807  16.6807  16.9078  16.9078
    17.2973  17.2973  17.8718  17.8718  20.7124  20.7124

     occupation numbers 
     1.0000   1.0000   1.0000   1.0000   1.0000   1.0000   1.0000   1.0000
     1.0000   1.0000   1.0000   1.0000   1.0000   1.0000   1.0000   1.0000
     1.0000   1.0000   1.0000   1.0000   1.0000   1.0000   1.0000   1.0000
     1.0000   1.0000   1.0000   1.0000   1.0000   1.0000   1.0000   1.0000
     1.0000   1.0000   1.0000   1.0000   1.0000   1.0000   1.0000   1.0000
     1.0000   1.0000   1.0000   1.0000   1.0000   1.0000   1.0000   1.0000
     1.0000   1.0000   1.0000   1.0000   1.0000   1.0000   1.0000   1.0000
     1.0000   1.0000   0.6272   0.6272  -0.0000  -0.0000  -0.0000  -0.0000
    -0.0000  -0.0000  -0.0000  -0.0000  -0.0000  -0.0000

          k = 0.0000 0.4444 0.3166 (  5384 PWs)   bands (ev):

   -79.3824 -79.3824 -79.3822 -79.3822 -46.2267 -46.2267 -46.2248 -46.2248
   -32.7859 -32.7859 -32.7646 -32.7646 -32.6372 -32.6372 -32.6224 -32.6224
    -6.0974  -6.0974  -5.8548  -5.8548  -5.4599  -5.4599  -5.3547  -5.3547
     5.8648   5.8648   5.9721   5.9721   6.3316   6.3316   6.4576   6.4576
     6.8584   6.8584   7.0069   7.0069   7.9664   7.9664   8.0649   8.0649
     8.4245   8.4245   8.9467   8.9467  10.4010  10.4010  10.6477  10.6477
    11.9741  11.9741  12.2262  12.2262  12.6740  12.6740  12.9229  12.9229
    13.5057  13.5057  13.9644  13.9644  15.9456  15.9456  16.1034  16.1034
    17.4983  17.4983  17.9890  17.9890  21.4255  21.4256

     occupation numbers 
     1.0000   1.0000   1.0000   1.0000   1.0000   1.0000   1.0000   1.0000
     1.0000   1.0000   1.0000   1.0000   1.0000   1.0000   1.0000   1.0000
     1.0000   1.0000   1.0000   1.0000   1.0000   1.0000   1.0000   1.0000
     1.0000   1.0000   1.0000   1.0000   1.0000   1.0000   1.0000   1.0000
     1.0000   1.0000   1.0000   1.0000   1.0000   1.0000   1.0000   1.0000
     1.0000   1.0000   1.0000   1.0000   1.0000   1.0000   1.0000   1.0000
     1.0000   1.0000   1.0000   1.0000   1.0000   1.0000   1.0000   1.0000
     1.0000   1.0000  -0.0290  -0.0290  -0.0000  -0.0000  -0.0000  -0.0000
    -0.0000  -0.0000  -0.0000  -0.0000  -0.0000  -0.0000

          k = 0.0000 0.4444 0.4749 (  5370 PWs)   bands (ev):

   -79.3816 -79.3816 -79.3815 -79.3815 -46.2305 -46.2305 -46.2286 -46.2286
   -32.8089 -32.8089 -32.7813 -32.7813 -32.6429 -32.6429 -32.6244 -32.6244
    -5.8858  -5.8858  -5.7424  -5.7424  -5.4908  -5.4908  -5.3537  -5.3537
     5.8987   5.8987   5.9571   5.9571   6.1230   6.1230   6.2713   6.2713
     6.9078   6.9078   7.1932   7.1932   8.2017   8.2017   8.4866   8.4866
     8.8648   8.8648   9.0676   9.0676  10.0556  10.0556  10.5166  10.5166
    11.5264  11.5264  11.9610  11.9610  12.3802  12.3802  12.6860  12.6860
    13.8519  13.8519  14.2661  14.2661  15.3319  15.3319  15.4416  15.4416
    17.8606  17.8606  18.1874  18.1874  22.2078  22.2079

     occupation numbers 
     1.0000   1.0000   1.0000   1.0000   1.0000   1.0000   1.0000   1.0000
     1.0000   1.0000   1.0000   1.0000   1.0000   1.0000   1.0000   1.0000
     1.0000   1.0000   1.0000   1.0000   1.0000   1.0000   1.0000   1.0000
     1.0000   1.0000   1.0000   1.0000   1.0000   1.0000   1.0000   1.0000
     1.0000   1.0000   1.0000   1.0000   1.0000   1.0000   1.0000   1.0000
     1.0000   1.0000   1.0000   1.0000   1.0000   1.0000   1.0000   1.0000
     1.0000   1.0000   1.0000   1.0000   1.0000   1.0000   1.0000   1.0000
     0.6541   0.6541  -0.0000  -0.0000  -0.0000  -0.0000  -0.0000  -0.0000
    -0.0000  -0.0000  -0.0000  -0.0000  -0.0000  -0.0000

          k = 0.0000 0.4444 0.6332 (  5368 PWs)   bands (ev):

   -79.3810 -79.3810 -79.3810 -79.3810 -46.2329 -46.2329 -46.2310 -46.2310
   -32.8246 -32.8246 -32.7943 -32.7943 -32.6445 -32.6445 -32.6248 -32.6248
    -5.8324  -5.8324  -5.8014  -5.8014  -5.3912  -5.3912  -5.2318  -5.2318
     5.5179   5.5179   5.5672   5.5672   6.1767   6.1767   6.2130   6.2130
     7.4501   7.4501   7.9212   7.9212   8.3323   8.3323   8.6889   8.6889
     8.8754   8.8754   9.0445   9.0445  10.1877  10.1877  10.6269  10.6269
    11.0982  11.0982  11.4620  11.4620  11.9732  11.9732  12.3073  12.3073
    14.1226  14.1226  14.4788  14.4788  15.0597  15.0597  15.1184  15.1184
    18.1460  18.1460  18.3410  18.3410  22.8986  22.8988

     occupation numbers 
     1.0000   1.0000   1.0000   1.0000   1.0000   1.0000   1.0000   1.0000
     1.0000   1.0000   1.0000   1.0000   1.0000   1.0000   1.0000   1.0000
     1.0000   1.0000   1.0000   1.0000   1.0000   1.0000   1.0000   1.0000
     1.0000   1.0000   1.0000   1.0000   1.0000   1.0000   1.0000   1.0000
     1.0000   1.0000   1.0000   1.0000   1.0000   1.0000   1.0000   1.0000
     1.0000   1.0000   1.0000   1.0000   1.0000   1.0000   1.0000   1.0000
     1.0000   1.0000   1.0000   1.0000   1.0000   1.0000   1.0000   1.0000
    -0.0000  -0.0000  -0.0000  -0.0000  -0.0000  -0.0000  -0.0000  -0.0000
    -0.0000  -0.0000  -0.0000  -0.0000  -0.0000  -0.0000

          k = 0.1111 0.1111 0.0000 (  5365 PWs)   bands (ev):

   -79.3838 -79.3838 -79.3827 -79.3827 -46.2258 -46.2258 -46.2164 -46.2164
   -32.7634 -32.7634 -32.7528 -32.7528 -32.6230 -32.6230 -32.6114 -32.6114
    -6.9834  -6.9834  -5.9069  -5.9069  -5.0947  -5.0947  -4.8716  -4.8716
     4.3751   4.3751   4.8141   4.8141   6.0569   6.0569   6.1728   6.1728
     6.4111   6.4111   8.3951   8.3951   8.7060   8.7060   9.0557   9.0557
     9.9721   9.9721  10.4744  10.4744  10.6048  10.6048  11.1471  11.1471
    11.5182  11.5182  11.5635  11.5635  11.8313  11.8313  11.9573  11.9573
    12.3803  12.3803  14.8971  14.8971  14.9855  14.9855  17.5736  17.5736
    17.9529  17.9529  18.3441  18.3441  19.2224  19.2224

     occupation numbers 
     1.0000   1.0000   1.0000   1.0000   1.0000   1.0000   1.0000   1.0000
     1.0000   1.0000   1.0000   1.0000   1.0000   1.0000   1.0000   1.0000
     1.0000   1.0000   1.0000   1.0000   1.0000   1.0000   1.0000   1.0000
     1.0000   1.0000   1.0000   1.0000   1.0000   1.0000   1.0000   1.0000
     1.0000   1.0000   1.0000   1.0000   1.0000   1.0000   1.0000   1.0000
     1.0000   1.0000   1.0000   1.0000   1.0000   1.0000   1.0000   1.0000
     1.0000   1.0000   1.0000   1.0000   1.0000   1.0000   1.0000   1.0000
     1.0000   1.0000  -0.0000  -0.0000  -0.0000  -0.0000  -0.0000  -0.0000
    -0.0000  -0.0000  -0.0000  -0.0000  -0.0000  -0.0000

          k = 0.1111 0.1111 0.1583 (  5363 PWs)   bands (ev):

   -79.3835 -79.3835 -79.3824 -79.3824 -46.2269 -46.2269 -46.2179 -46.2179
   -32.7670 -32.7670 -32.7584 -32.7584 -32.6282 -32.6282 -32.6137 -32.6137
    -6.8741  -6.8741  -5.8439  -5.8439  -5.1454  -5.1454  -4.9378  -4.9378
     4.5196   4.5196   4.9318   4.9318   6.1146   6.1146   6.2428   6.2428
     6.5667   6.5667   8.1793   8.1793   8.5782   8.5782   9.1272   9.1272
     9.3136   9.3136  10.1701  10.1701  10.3540  10.3540  11.2543  11.2543
    11.4937  11.4937  11.6963  11.6963  12.0456  12.0456  12.3279  12.3279
    12.6284  12.6284  14.7892  14.7892  15.2213  15.2213  17.1962  17.1962
    17.6193  17.6193  18.7120  18.7120  19.0568  19.0568

     occupation numbers 
     1.0000   1.0000   1.0000   1.0000   1.0000   1.0000   1.0000   1.0000
     1.0000   1.0000   1.0000   1.0000   1.0000   1.0000   1.0000   1.0000
     1.0000   1.0000   1.0000   1.0000   1.0000   1.0000   1.0000   1.0000
     1.0000   1.0000   1.0000   1.0000   1.0000   1.0000   1.0000   1.0000
     1.0000   1.0000   1.0000   1.0000   1.0000   1.0000   1.0000   1.0000
     1.0000   1.0000   1.0000   1.0000   1.0000   1.0000   1.0000   1.0000
     1.0000   1.0000   1.0000   1.0000   1.0000   1.0000   1.0000   1.0000
     1.0000   1.0000  -0.0000  -0.0000  -0.0000  -0.0000  -0.0000  -0.0000
    -0.0000  -0.0000  -0.0000  -0.0000  -0.0000  -0.0000

          k = 0.1111 0.1111 0.3166 (  5389 PWs)   bands (ev):

   -79.3827 -79.3827 -79.3818 -79.3818 -46.2293 -46.2293 -46.2221 -46.2221
   -32.7814 -32.7814 -32.7715 -32.7715 -32.6377 -32.6377 -32.6189 -32.6189
    -6.5797  -6.5797  -5.7012  -5.7012  -5.2629  -5.2629  -5.0999  -5.0999
     4.9127   4.9127   5.2407   5.2407   6.2856   6.2856   6.4869   6.4869
     6.9661   6.9661   7.3153   7.3153   8.2236   8.2236   8.8673   8.8673
     9.2810   9.2810   9.6058   9.6058   9.7905   9.7905  10.9855  10.9855
    11.5268  11.5268  11.9568  11.9568  12.3460  12.3460  12.8802  12.8802
    13.1914  13.1914  14.5041  14.5041  15.7397  15.7397  16.5193  16.5193
    17.0120  17.0120  18.4093  18.4093  19.7791  19.7791

     occupation numbers 
     1.0000   1.0000   1.0000   1.0000   1.0000   1.0000   1.0000   1.0000
     1.0000   1.0000   1.0000   1.0000   1.0000   1.0000   1.0000   1.0000
     1.0000   1.0000   1.0000   1.0000   1.0000   1.0000   1.0000   1.0000
     1.0000   1.0000   1.0000   1.0000   1.0000   1.0000   1.0000   1.0000
     1.0000   1.0000   1.0000   1.0000   1.0000   1.0000   1.0000   1.0000
     1.0000   1.0000   1.0000   1.0000   1.0000   1.0000   1.0000   1.0000
     1.0000   1.0000   1.0000   1.0000   1.0000   1.0000   1.0000   1.0000
     1.0000   1.0000  -0.0000  -0.0000  -0.0000  -0.0000  -0.0000  -0.0000
    -0.0000  -0.0000  -0.0000  -0.0000  -0.0000  -0.0000

          k = 0.1111 0.1111 0.4749 (  5373 PWs)   bands (ev):

   -79.3818 -79.3818 -79.3812 -79.3812 -46.2319 -46.2319 -46.2271 -46.2271
   -32.8020 -32.8020 -32.7887 -32.7887 -32.6418 -32.6418 -32.6245 -32.6245
    -6.1956  -6.1956  -5.6162  -5.6162  -5.3570  -5.3570  -5.2647  -5.2647
     5.3962   5.3962   5.6259   5.6259   6.3478   6.3478   6.5896   6.5896
     7.0875   7.0875   7.3455   7.3455   7.5825   7.5825   8.7083   8.7083
     8.8994   8.8994   9.4774   9.4774   9.7611   9.7611  10.2120  10.2120
    11.8273  11.8273  12.0802  12.0802  12.2863  12.2863  13.3948  13.3948
    13.5759  13.5759  14.2608  14.2608  15.7646  15.7646  16.2550  16.2550
    16.6418  16.6418  17.8002  17.8002  21.0469  21.0469

     occupation numbers 
     1.0000   1.0000   1.0000   1.0000   1.0000   1.0000   1.0000   1.0000
     1.0000   1.0000   1.0000   1.0000   1.0000   1.0000   1.0000   1.0000
     1.0000   1.0000   1.0000   1.0000   1.0000   1.0000   1.0000   1.0000
     1.0000   1.0000   1.0000   1.0000   1.0000   1.0000   1.0000   1.0000
     1.0000   1.0000   1.0000   1.0000   1.0000   1.0000   1.0000   1.0000
     1.0000   1.0000   1.0000   1.0000   1.0000   1.0000   1.0000   1.0000
     1.0000   1.0000   1.0000   1.0000   1.0000   1.0000   1.0000   1.0000
     1.0000   1.0000  -0.0000  -0.0000  -0.0000  -0.0000  -0.0000  -0.0000
    -0.0000  -0.0000  -0.0000  -0.0000  -0.0000  -0.0000

          k = 0.1111 0.1111 0.6332 (  5364 PWs)   bands (ev):

   -79.3811 -79.3811 -79.3809 -79.3809 -46.2329 -46.2329 -46.2310 -46.2310
   -32.8163 -32.8163 -32.8021 -32.8021 -32.6401 -32.6401 -32.6292 -32.6292
    -5.8657  -5.8657  -5.6736  -5.6736  -5.4231  -5.4231  -5.3155  -5.3155
     5.6555   5.6555   5.8564   5.8564   6.1315   6.1315   6.7151   6.7151
     6.8614   6.8614   7.7051   7.7051   8.2201   8.2201   8.3146   8.3146
     8.4835   8.4835   9.2435   9.2435   9.6219   9.6219   9.9588   9.9588
    11.8485  11.8485  12.0022  12.0022  12.5113  12.5113  13.1886  13.1886
    13.8431  13.8431  14.3723  14.3723  15.4447  15.4447  16.1368  16.1368
    16.6981  16.6981  17.4796  17.4796  22.3484  22.3484

     occupation numbers 
     1.0000   1.0000   1.0000   1.0000   1.0000   1.0000   1.0000   1.0000
     1.0000   1.0000   1.0000   1.0000   1.0000   1.0000   1.0000   1.0000
     1.0000   1.0000   1.0000   1.0000   1.0000   1.0000   1.0000   1.0000
     1.0000   1.0000   1.0000   1.0000   1.0000   1.0000   1.0000   1.0000
     1.0000   1.0000   1.0000   1.0000   1.0000   1.0000   1.0000   1.0000
     1.0000   1.0000   1.0000   1.0000   1.0000   1.0000   1.0000   1.0000
     1.0000   1.0000   1.0000   1.0000   1.0000   1.0000   1.0000   1.0000
     0.7523   0.7523  -0.0000  -0.0000  -0.0000  -0.0000  -0.0000  -0.0000
    -0.0000  -0.0000  -0.0000  -0.0000  -0.0000  -0.0000

          k = 0.1111 0.2222 0.0000 (  5375 PWs)   bands (ev):

   -79.3837 -79.3837 -79.3828 -79.3828 -46.2250 -46.2250 -46.2172 -46.2172
   -32.7617 -32.7617 -32.7530 -32.7530 -32.6229 -32.6229 -32.6133 -32.6133
    -6.8583  -6.8583  -5.9128  -5.9128  -5.2117  -5.2117  -4.9436  -4.9436
     4.4966   4.4966   5.2183   5.2183   6.0770   6.0770   6.2097   6.2097
     6.6389   6.6389   7.8268   7.8268   8.6163   8.6163   8.8447   8.8447
     9.6783   9.6783   9.9566   9.9566  10.4143  10.4143  11.3304  11.3304
    11.4008  11.4008  11.7365  11.7365  12.0531  12.0531  12.2771  12.2771
    12.6832  12.6832  14.6641  14.6641  15.4114  15.4114  17.4291  17.4291
    17.8508  17.8508  18.8720  18.8720  18.9557  18.9557

     occupation numbers 
     1.0000   1.0000   1.0000   1.0000   1.0000   1.0000   1.0000   1.0000
     1.0000   1.0000   1.0000   1.0000   1.0000   1.0000   1.0000   1.0000
     1.0000   1.0000   1.0000   1.0000   1.0000   1.0000   1.0000   1.0000
     1.0000   1.0000   1.0000   1.0000   1.0000   1.0000   1.0000   1.0000
     1.0000   1.0000   1.0000   1.0000   1.0000   1.0000   1.0000   1.0000
     1.0000   1.0000   1.0000   1.0000   1.0000   1.0000   1.0000   1.0000
     1.0000   1.0000   1.0000   1.0000   1.0000   1.0000   1.0000   1.0000
     1.0000   1.0000  -0.0000  -0.0000  -0.0000  -0.0000  -0.0000  -0.0000
    -0.0000  -0.0000  -0.0000  -0.0000  -0.0000  -0.0000

          k = 0.1111 0.2222 0.1583 (  5371 PWs)   bands (ev):

   -79.3834 -79.3834 -79.3825 -79.3825 -46.2260 -46.2260 -46.2188 -46.2188
   -32.7668 -32.7668 -32.7573 -32.7573 -32.6281 -32.6281 -32.6154 -32.6154
    -6.7533  -6.7533  -5.8414  -5.8414  -5.2626  -5.2626  -5.0049  -5.0049
     4.6304   4.6304   5.3274   5.3274   6.1132   6.1132   6.2638   6.2638
     6.8072   6.8072   7.9402   7.9402   8.1523   8.1523   8.8041   8.8041
     9.1685   9.1685   9.9566   9.9566  10.3139  10.3139  11.1142  11.1142
    11.5965  11.5965  11.8370  11.8370  12.2035  12.2035  12.5050  12.5050
    12.8780  12.8780  14.5669  14.5669  15.6089  15.6089  17.0038  17.0038
    17.5263  17.5263  18.7690  18.7690  19.3166  19.3166

     occupation numbers 
     1.0000   1.0000   1.0000   1.0000   1.0000   1.0000   1.0000   1.0000
     1.0000   1.0000   1.0000   1.0000   1.0000   1.0000   1.0000   1.0000
     1.0000   1.0000   1.0000   1.0000   1.0000   1.0000   1.0000   1.0000
     1.0000   1.0000   1.0000   1.0000   1.0000   1.0000   1.0000   1.0000
     1.0000   1.0000   1.0000   1.0000   1.0000   1.0000   1.0000   1.0000
     1.0000   1.0000   1.0000   1.0000   1.0000   1.0000   1.0000   1.0000
     1.0000   1.0000   1.0000   1.0000   1.0000   1.0000   1.0000   1.0000
     1.0000   1.0000  -0.0000  -0.0000  -0.0000  -0.0000  -0.0000  -0.0000
    -0.0000  -0.0000  -0.0000  -0.0000  -0.0000  -0.0000

          k = 0.1111 0.2222 0.3166 (  5383 PWs)   bands (ev):

   -79.3827 -79.3827 -79.3819 -79.3819 -46.2287 -46.2287 -46.2227 -46.2227
   -32.7832 -32.7832 -32.7689 -32.7689 -32.6375 -32.6375 -32.6202 -32.6202
    -6.4737  -6.4737  -5.6761  -5.6761  -5.3791  -5.3791  -5.1531  -5.1531
     4.9931   4.9931   5.5798   5.5798   6.2454   6.2454   6.5203   6.5203
     7.0615   7.0615   7.3120   7.3120   7.9617   7.9617   8.4013   8.4013
     9.2617   9.2617   9.4658   9.4658   9.9456   9.9456  11.1055  11.1055
    11.3657  11.3657  12.0702  12.0702  12.4925  12.4925  12.8537  12.8537
    13.3115  13.3115  14.3369  14.3369  15.9611  15.9611  16.3146  16.3146
    16.9531  16.9531  18.4384  18.4384  20.1782  20.1782

[...]
     1.0000   1.0000   1.0000   1.0000   1.0000   1.0000   1.0000   1.0000
     1.0000   1.0000   1.0089   1.0089  -0.0000  -0.0000  -0.0000  -0.0000
    -0.0000  -0.0000  -0.0000  -0.0000  -0.0000  -0.0000

          k = 0.3333 0.4444 0.4749 (  5359 PWs)   bands (ev):

   -79.3815 -79.3815 -79.3815 -79.3815 -46.2300 -46.2300 -46.2290 -46.2290
   -32.8027 -32.8027 -32.7883 -32.7883 -32.6384 -32.6384 -32.6288 -32.6288
    -5.8507  -5.8507  -5.7832  -5.7832  -5.4355  -5.4355  -5.3583  -5.3583
     5.4074   5.4074   5.5386   5.5386   6.1425   6.1425   6.2482   6.2482
     7.0237   7.0237   7.2338   7.2338   8.5354   8.5354   8.6558   8.6558
     9.1756   9.1756   9.3690   9.3690  10.0560  10.0560  10.3927  10.3927
    11.9657  11.9657  12.0786  12.0786  12.3882  12.3882  12.7577  12.7577
    13.3996  13.3996  13.8059  13.8059  15.8495  15.8495  16.1782  16.1782
    17.2325  17.2325  17.5660  17.5660  22.5507  22.5509

     occupation numbers 
     1.0000   1.0000   1.0000   1.0000   1.0000   1.0000   1.0000   1.0000
     1.0000   1.0000   1.0000   1.0000   1.0000   1.0000   1.0000   1.0000
     1.0000   1.0000   1.0000   1.0000   1.0000   1.0000   1.0000   1.0000
     1.0000   1.0000   1.0000   1.0000   1.0000   1.0000   1.0000   1.0000
     1.0000   1.0000   1.0000   1.0000   1.0000   1.0000   1.0000   1.0000
     1.0000   1.0000   1.0000   1.0000   1.0000   1.0000   1.0000   1.0000
     1.0000   1.0000   1.0000   1.0000   1.0000   1.0000   1.0000   1.0000
     1.0000   1.0000   1.0044   1.0044  -0.0000  -0.0000  -0.0000  -0.0000
    -0.0000  -0.0000  -0.0000  -0.0000  -0.0000  -0.0000

          k = 0.3333 0.4444 0.6332 (  5362 PWs)   bands (ev):

   -79.3810 -79.3810 -79.3810 -79.3810 -46.2325 -46.2325 -46.2315 -46.2315
   -32.8173 -32.8173 -32.8015 -32.8015 -32.6402 -32.6402 -32.6299 -32.6299
    -5.7385  -5.7385  -5.6731  -5.6731  -5.4799  -5.4799  -5.3501  -5.3501
     5.6221   5.6221   5.7509   5.7509   6.0161   6.0161   6.2424   6.2424
     6.8192   6.8192   7.2275   7.2275   8.2472   8.2472   8.3669   8.3669
     9.4561   9.4561   9.6020   9.6020  10.3849  10.3849  10.6795  10.6795
    11.7667  11.7667  11.9426  11.9426  12.1391  12.1391  12.5736  12.5736
    13.5254  13.5254  13.9853  13.9853  15.5153  15.5153  15.8885  15.8885
    17.2878  17.2878  17.6801  17.6801  22.9650  22.9650

     occupation numbers 
     1.0000   1.0000   1.0000   1.0000   1.0000   1.0000   1.0000   1.0000
     1.0000   1.0000   1.0000   1.0000   1.0000   1.0000   1.0000   1.0000
     1.0000   1.0000   1.0000   1.0000   1.0000   1.0000   1.0000   1.0000
     1.0000   1.0000   1.0000   1.0000   1.0000   1.0000   1.0000   1.0000
     1.0000   1.0000   1.0000   1.0000   1.0000   1.0000   1.0000   1.0000
     1.0000   1.0000   1.0000   1.0000   1.0000   1.0000   1.0000   1.0000
     1.0000   1.0000   1.0000   1.0000   1.0000   1.0000   1.0000   1.0000
     1.0000   1.0000  -0.0154  -0.0154  -0.0000  -0.0000  -0.0000  -0.0000
    -0.0000  -0.0000  -0.0000  -0.0000  -0.0000  -0.0000

          k = 0.4444 0.4444 0.0000 (  5408 PWs)   bands (ev):

   -79.3833 -79.3833 -79.3832 -79.3832 -46.2213 -46.2213 -46.2210 -46.2210
   -32.7584 -32.7584 -32.7579 -32.7579 -32.6182 -32.6182 -32.6177 -32.6177
    -6.4255  -6.4255  -6.3826  -6.3826  -5.0637  -5.0637  -5.0308  -5.0308
     4.4015   4.4015   4.5017   4.5017   6.0146   6.0146   6.0311   6.0311
     8.3458   8.3458   8.7000   8.7000   8.7615   8.7615   9.1206   9.1206
     9.4953   9.4953   9.5987   9.5987  10.0877  10.0877  10.3978  10.3978
    11.1370  11.1370  11.3360  11.3360  11.7625  11.7625  11.8614  11.8614
    13.9970  13.9970  14.0705  14.0705  16.2060  16.2060  16.3805  16.3805
    17.8676  17.8676  17.9305  17.9305  22.0618  22.0618

     occupation numbers 
     1.0000   1.0000   1.0000   1.0000   1.0000   1.0000   1.0000   1.0000
     1.0000   1.0000   1.0000   1.0000   1.0000   1.0000   1.0000   1.0000
     1.0000   1.0000   1.0000   1.0000   1.0000   1.0000   1.0000   1.0000
     1.0000   1.0000   1.0000   1.0000   1.0000   1.0000   1.0000   1.0000
     1.0000   1.0000   1.0000   1.0000   1.0000   1.0000   1.0000   1.0000
     1.0000   1.0000   1.0000   1.0000   1.0000   1.0000   1.0000   1.0000
     1.0000   1.0000   1.0000   1.0000   1.0000   1.0000   1.0000   1.0000
    -0.0095  -0.0095  -0.0001  -0.0001  -0.0000  -0.0000  -0.0000  -0.0000
    -0.0000  -0.0000  -0.0000  -0.0000  -0.0000  -0.0000

          k = 0.4444 0.4444 0.1583 (  5394 PWs)   bands (ev):

   -79.3830 -79.3830 -79.3830 -79.3830 -46.2226 -46.2226 -46.2223 -46.2223
   -32.7642 -32.7642 -32.7614 -32.7614 -32.6226 -32.6226 -32.6207 -32.6207
    -6.3357  -6.3357  -6.2939  -6.2939  -5.1201  -5.1201  -5.0879  -5.0879
     4.5327   4.5327   4.6306   4.6306   6.0154   6.0154   6.0341   6.0341
     8.4701   8.4701   8.7021   8.7021   8.8523   8.8523   9.0232   9.0232
     9.1430   9.1430   9.3443   9.3443   9.8025   9.8025  10.0015  10.0015
    11.4713  11.4713  11.6338  11.6338  12.0672  12.0672  12.1333  12.1333
    13.8714  13.8714  13.9408  13.9408  16.3693  16.3693  16.5219  16.5219
    17.5763  17.5763  17.6463  17.6463  22.2294  22.2294

     occupation numbers 
     1.0000   1.0000   1.0000   1.0000   1.0000   1.0000   1.0000   1.0000
     1.0000   1.0000   1.0000   1.0000   1.0000   1.0000   1.0000   1.0000
     1.0000   1.0000   1.0000   1.0000   1.0000   1.0000   1.0000   1.0000
     1.0000   1.0000   1.0000   1.0000   1.0000   1.0000   1.0000   1.0000
     1.0000   1.0000   1.0000   1.0000   1.0000   1.0000   1.0000   1.0000
     1.0000   1.0000   1.0000   1.0000   1.0000   1.0000   1.0000   1.0000
     1.0000   1.0000   1.0000   1.0000   1.0000   1.0000   1.0000   1.0000
     0.4156   0.4156  -0.0335  -0.0335  -0.0000  -0.0000  -0.0000  -0.0000
    -0.0000  -0.0000  -0.0000  -0.0000  -0.0000  -0.0000

          k = 0.4444 0.4444 0.3166 (  5379 PWs)   bands (ev):

   -79.3823 -79.3823 -79.3823 -79.3823 -46.2260 -46.2260 -46.2256 -46.2256
   -32.7793 -32.7793 -32.7741 -32.7741 -32.6306 -32.6306 -32.6271 -32.6271
    -6.1027  -6.1027  -6.0657  -6.0657  -5.2584  -5.2584  -5.2280  -5.2280
     4.8894   4.8894   4.9761   4.9761   6.0518   6.0518   6.0774   6.0774
     7.9291   7.9291   8.0644   8.0644   8.7398   8.7398   9.0043   9.0043
     9.1957   9.1957   9.3321   9.3321   9.6293   9.6293   9.8476   9.8476
    11.8469  11.8469  11.9676  11.9676  12.5271  12.5271  12.6024  12.6024
    13.5489  13.5489  13.6324  13.6324  16.5415  16.5415  16.6749  16.6749
    17.0954  17.0954  17.2128  17.2128  22.5247  22.5252

     occupation numbers 
     1.0000   1.0000   1.0000   1.0000   1.0000   1.0000   1.0000   1.0000
     1.0000   1.0000   1.0000   1.0000   1.0000   1.0000   1.0000   1.0000
     1.0000   1.0000   1.0000   1.0000   1.0000   1.0000   1.0000   1.0000
     1.0000   1.0000   1.0000   1.0000   1.0000   1.0000   1.0000   1.0000
     1.0000   1.0000   1.0000   1.0000   1.0000   1.0000   1.0000   1.0000
     1.0000   1.0000   1.0000   1.0000   1.0000   1.0000   1.0000   1.0000
     1.0000   1.0000   1.0000   1.0000   1.0000   1.0000   1.0000   1.0000
     1.0000   1.0000   1.0000   1.0000  -0.0000  -0.0000  -0.0000  -0.0000
    -0.0000  -0.0000  -0.0000  -0.0000  -0.0000  -0.0000

          k = 0.4444 0.4444 0.4749 (  5359 PWs)   bands (ev):

   -79.3815 -79.3815 -79.3815 -79.3815 -46.2298 -46.2298 -46.2293 -46.2293
   -32.7990 -32.7990 -32.7922 -32.7922 -32.6358 -32.6358 -32.6313 -32.6313
    -5.8294  -5.8294  -5.8064  -5.8064  -5.4071  -5.4071  -5.3715  -5.3715
     5.3503   5.3503   5.3998   5.3998   6.1288   6.1288   6.1778   6.1778
     7.1561   7.1561   7.2406   7.2406   8.5706   8.5706   8.6278   8.6278
     9.3211   9.3211   9.4050   9.4050  10.1809  10.1809  10.3252  10.3252
    11.9694  11.9694  12.0258  12.0258  12.6338  12.6338  12.9320  12.9320
    13.2176  13.2176  13.5214  13.5214  16.1709  16.1709  16.3556  16.3556
    17.0566  17.0566  17.2372  17.2372  22.8152  22.8156

     occupation numbers 
     1.0000   1.0000   1.0000   1.0000   1.0000   1.0000   1.0000   1.0000
     1.0000   1.0000   1.0000   1.0000   1.0000   1.0000   1.0000   1.0000
     1.0000   1.0000   1.0000   1.0000   1.0000   1.0000   1.0000   1.0000
     1.0000   1.0000   1.0000   1.0000   1.0000   1.0000   1.0000   1.0000
     1.0000   1.0000   1.0000   1.0000   1.0000   1.0000   1.0000   1.0000
     1.0000   1.0000   1.0000   1.0000   1.0000   1.0000   1.0000   1.0000
     1.0000   1.0000   1.0000   1.0000   1.0000   1.0000   1.0000   1.0000
     1.0000   1.0000   1.0000   1.0000  -0.0000  -0.0000  -0.0000  -0.0000
    -0.0000  -0.0000  -0.0000  -0.0000  -0.0000  -0.0000

          k = 0.4444 0.4444 0.6332 (  5369 PWs)   bands (ev):

   -79.3810 -79.3810 -79.3810 -79.3810 -46.2322 -46.2322 -46.2318 -46.2318
   -32.8131 -32.8131 -32.8057 -32.8057 -32.6376 -32.6376 -32.6327 -32.6327
    -5.6823  -5.6823  -5.6369  -5.6369  -5.4982  -5.4982  -5.4196  -5.4196
     5.6640   5.6640   5.7226   5.7226   6.1049   6.1049   6.2932   6.2932
     6.6850   6.6850   6.9089   6.9089   8.2746   8.2746   8.3344   8.3344
     9.5766   9.5766   9.6296   9.6296  10.5483  10.5483  10.6534  10.6534
    11.9250  11.9250  11.9527  11.9527  12.4202  12.4202  12.7272  12.7272
    13.3541  13.3541  13.6572  13.6572  15.8814  15.8814  16.1073  16.1073
    17.0390  17.0390  17.2720  17.2720  23.0225  23.0230

     occupation numbers 
     1.0000   1.0000   1.0000   1.0000   1.0000   1.0000   1.0000   1.0000
     1.0000   1.0000   1.0000   1.0000   1.0000   1.0000   1.0000   1.0000
     1.0000   1.0000   1.0000   1.0000   1.0000   1.0000   1.0000   1.0000
     1.0000   1.0000   1.0000   1.0000   1.0000   1.0000   1.0000   1.0000
     1.0000   1.0000   1.0000   1.0000   1.0000   1.0000   1.0000   1.0000
     1.0000   1.0000   1.0000   1.0000   1.0000   1.0000   1.0000   1.0000
     1.0000   1.0000   1.0000   1.0000   1.0000   1.0000   1.0000   1.0000
     1.0000   1.0000   1.0001   1.0001  -0.0000  -0.0000  -0.0000  -0.0000
    -0.0000  -0.0000  -0.0000  -0.0000  -0.0000  -0.0000

     the Fermi energy is    13.8646 ev

!    total energy              =    -553.08015727 Ry
     estimated scf accuracy    <          2.2E-11 Ry
     smearing contrib. (-TS)   =      -0.00004135 Ry
     internal energy E=F+TS    =    -553.08011592 Ry

     The total energy is F=E-TS. E is the sum of the following terms:
     one-electron contribution =    -190.91204016 Ry
     hartree contribution      =     122.73289675 Ry
     xc contribution           =     -69.91496199 Ry
     ewald contribution        =    -414.98601052 Ry

     convergence has been achieved in  10 iterations

     Forces acting on atoms (cartesian axes, Ry/au):

     atom    1 type  2   force =     0.00000000    0.00000000    0.00000000
     atom    2 type  2   force =     0.00000000    0.00000000   -0.00000000
     atom    3 type  1   force =     0.00076685   -0.00076685    0.00000000
     atom    4 type  1   force =    -0.00076685   -0.00076685    0.00000000
     atom    5 type  1   force =     0.00076685    0.00076685    0.00000000
     atom    6 type  1   force =    -0.00076685    0.00076685    0.00000000
     The non-local contrib.  to forces
     atom    1 type  2   force =     0.00000000    0.00000000    0.00000000
     atom    2 type  2   force =     0.00000000    0.00000000    0.00000000
     atom    3 type  1   force =    -0.05400673    0.05400673    0.00000000
     atom    4 type  1   force =     0.05400673    0.05400673    0.00000000
     atom    5 type  1   force =    -0.05400673   -0.05400673    0.00000000
     atom    6 type  1   force =     0.05400673   -0.05400673    0.00000000
     The ionic contribution  to forces
     atom    1 type  2   force =    -0.00000000   -0.00000000    0.00000000
     atom    2 type  2   force =     0.00000000    0.00000000   -0.00000000
     atom    3 type  1   force =     1.42937233   -1.42937233    0.00000000
     atom    4 type  1   force =    -1.42937233   -1.42937233   -0.00000000
     atom    5 type  1   force =     1.42937233    1.42937233   -0.00000000
     atom    6 type  1   force =    -1.42937233    1.42937233    0.00000000
     The local contribution  to forces
     atom    1 type  2   force =    -0.00000000    0.00000000    0.00000000
     atom    2 type  2   force =     0.00000000    0.00000000    0.00000000
     atom    3 type  1   force =    -1.37459839    1.37459839    0.00000000
     atom    4 type  1   force =     1.37459839    1.37459839    0.00000000
     atom    5 type  1   force =    -1.37459839   -1.37459839    0.00000000
     atom    6 type  1   force =     1.37459839   -1.37459839    0.00000000
     The core correction contribution to forces
     atom    1 type  2   force =     0.00000000    0.00000000    0.00000000
     atom    2 type  2   force =     0.00000000    0.00000000    0.00000000
     atom    3 type  1   force =     0.00000000    0.00000000    0.00000000
     atom    4 type  1   force =     0.00000000    0.00000000    0.00000000
     atom    5 type  1   force =     0.00000000    0.00000000    0.00000000
     atom    6 type  1   force =     0.00000000    0.00000000    0.00000000
     The Hubbard contrib.    to forces
     atom    1 type  2   force =     0.00000000    0.00000000    0.00000000
     atom    2 type  2   force =     0.00000000    0.00000000    0.00000000
     atom    3 type  1   force =     0.00000000    0.00000000    0.00000000
     atom    4 type  1   force =     0.00000000    0.00000000    0.00000000
     atom    5 type  1   force =     0.00000000    0.00000000    0.00000000
     atom    6 type  1   force =     0.00000000    0.00000000    0.00000000
     The SCF correction term to forces
     atom    1 type  2   force =    -0.00000000   -0.00000000    0.00000000
     atom    2 type  2   force =    -0.00000000   -0.00000000   -0.00000000
     atom    3 type  1   force =    -0.00000036    0.00000036    0.00000000
     atom    4 type  1   force =     0.00000036    0.00000036    0.00000000
     atom    5 type  1   force =    -0.00000036   -0.00000036    0.00000000
     atom    6 type  1   force =     0.00000036   -0.00000036    0.00000000

     Total force =     0.002169     Total SCF correction =     0.000001


     Computing stress (Cartesian axis) and pressure

          total   stress  (Ry/bohr**3)                   (kbar)     P=      -20.20
  -0.00011597   0.00000000   0.00000000          -17.06        0.00        0.00
   0.00000000  -0.00011597   0.00000000            0.00      -17.06        0.00
   0.00000000   0.00000000  -0.00018007            0.00        0.00      -26.49

     kinetic stress (kbar)  48451.95      0.00      0.00
                                0.00  48451.95      0.00
                                0.00      0.00  47532.64

     local   stress (kbar) -12680.81     -0.00     -0.00
                               -0.00 -12680.81      0.00
                               -0.00      0.00 -44412.05

     nonloc. stress (kbar)  14526.58      0.00      0.00
                                0.00  14526.58      0.00
                                0.00      0.00  14742.42

     hartree stress (kbar)   9609.67     -0.00      0.00
                               -0.00   9609.67      0.00
                                0.00      0.00  21381.44

     exc-cor stress (kbar)  -7288.24      0.00     -0.00
                                0.00  -7288.24     -0.00
                               -0.00     -0.00  -7263.48

     corecor stress (kbar)      0.00      0.00      0.00
                                0.00      0.00      0.00
                                0.00      0.00      0.00

     ewald   stress (kbar) -52636.21     -0.00     -0.00
                               -0.00 -52636.21     -0.00
                               -0.00     -0.00 -32007.45

     hubbard stress (kbar)      0.00      0.00      0.00
                                0.00      0.00      0.00
                                0.00      0.00      0.00

     DFT-D   stress (kbar)      0.00      0.00      0.00
                                0.00      0.00      0.00
                                0.00      0.00      0.00

     XDM     stress (kbar)      0.00      0.00      0.00
                                0.00      0.00      0.00
                                0.00      0.00      0.00

     dft-nl  stress (kbar)      0.00      0.00      0.00
                                0.00      0.00      0.00
                                0.00      0.00      0.00

     TS-vdW  stress (kbar)      0.00      0.00      0.00
                                0.00      0.00      0.00
                                0.00      0.00      0.00


                                0.00      0.00      0.00
                                0.00      0.00      0.00


                                0.00      0.00      0.00


     Writing all to output data dir tmp/espresso.save/
 
     init_run     :      7.53s CPU      3.90s WALL (       1 calls)
     electrons    :    252.28s CPU    129.27s WALL (       1 calls)
     forces       :     15.37s CPU      7.86s WALL (       1 calls)
     stress       :     21.09s CPU     10.66s WALL (       1 calls)

     Called by init_run:
     wfcinit      :      7.47s CPU      3.84s WALL (       1 calls)
     wfcinit:atom :      0.03s CPU      0.01s WALL (      75 calls)
     wfcinit:wfcr :      7.27s CPU      3.73s WALL (      75 calls)
     potinit      :      0.02s CPU      0.01s WALL (       1 calls)
     hinit0       :      0.03s CPU      0.03s WALL (       1 calls)

     Called by electrons:
     c_bands      :    230.92s CPU    118.28s WALL (      10 calls)
     sum_band     :     21.18s CPU     10.86s WALL (      10 calls)
     v_of_rho     :      0.05s CPU      0.03s WALL (      11 calls)
     v_h          :      0.00s CPU      0.00s WALL (      11 calls)
     v_xc         :      0.04s CPU      0.02s WALL (      11 calls)
     mix_rho      :      0.05s CPU      0.02s WALL (      10 calls)

     Called by c_bands:
     init_us_2    :      0.65s CPU      0.35s WALL (    1725 calls)
     init_us_2:cp :      0.64s CPU      0.34s WALL (    1725 calls)
     cegterg      :    212.66s CPU    108.96s WALL (     750 calls)

     Called by sum_band:
     sum_band:wei :      0.13s CPU      0.07s WALL (      10 calls)
     sum_band:loo :     21.02s CPU     10.78s WALL (      10 calls)
     sum_band:buf :      0.12s CPU      0.06s WALL (     750 calls)
     sum_band:ini :      0.21s CPU      0.11s WALL (     750 calls)

     Called by *egterg:
     cdiaghg      :     30.17s CPU     15.35s WALL (    2430 calls)
     cegterg:over :     12.86s CPU      6.55s WALL (    1680 calls)
     cegterg:upda :     10.36s CPU      5.27s WALL (    1680 calls)
     cegterg:last :     18.35s CPU      9.32s WALL (    1500 calls)
     cdiaghg:chol :      1.41s CPU      0.72s WALL (    2430 calls)
     cdiaghg:inve :      0.22s CPU      0.11s WALL (    2430 calls)
     cdiaghg:para :      3.13s CPU      1.60s WALL (    4860 calls)
     h_psi        :    142.75s CPU     73.44s WALL (    2505 calls)
     g_psi        :      0.21s CPU      0.11s WALL (    1680 calls)

     Called by h_psi:
     h_psi:calbec :     17.24s CPU      9.03s WALL (    2505 calls)
     vloc_psi     :    100.17s CPU     51.53s WALL (    2505 calls)
     add_vuspsi   :     25.02s CPU     12.72s WALL (    2505 calls)

     General routines
     calbec       :     25.75s CPU     13.40s WALL (    2880 calls)
     fft          :      0.07s CPU      0.04s WALL (     150 calls)
     ffts         :      0.01s CPU      0.01s WALL (      40 calls)
     fftw         :    113.54s CPU     58.39s WALL (  643188 calls)
 
     Parallel routines
 
     PWSCF        :   5m 4.60s CPU   2m38.26s WALL

 
   This run was terminated on:  11:24:52  10Apr2022            

=------------------------------------------------------------------------------=
   JOB DONE.
=------------------------------------------------------------------------------=
