
     Program PWSCF v.7.0 starts on 10Apr2022 at 11: 2:24 

     This program is part of the open-source Quantum ESPRESSO suite
     for quantum simulation of materials; please cite
         "P. Giannozzi et al., J. Phys.:Condens. Matter 21 395502 (2009);
         "P. Giannozzi et al., J. Phys.:Condens. Matter 29 465901 (2017);
         "P. Giannozzi et al., J. Chem. Phys. 152 154105 (2020);
          URL http://www.quantum-espresso.org", 
     in publications or presentations arising from this work. More details at
     http://www.quantum-espresso.org/quote

     Parallel version (MPI & OpenMP), running on      64 processor cores
     Number of MPI processes:                32
     Threads/MPI process:                     2

     MPI processes distributed on     1 nodes
     R & G space division:  proc/nbgrp/npool/nimage =      32
     230654 MiB available memory on the printing compute node when the environment starts
 
     Reading input from kpoints_998.pwi
Warning: card &CELL ignored
Warning: card / ignored

     Current dimensions of program PWSCF are:
     Max number of different atomic species (ntypx) = 10
     Max number of k-points (npk) =  40000
     Max angular momentum in pseudopotentials (lmaxx) =  4

     Subspace diagonalization in iterative solution of the eigenvalue problem:
     one sub-group per band group will be used
     scalapack distributed-memory algorithm (size of sub-group:  5*  5 procs)

 
     Parallelization info
     --------------------
     sticks:   dense  smooth     PW     G-vecs:    dense   smooth      PW
     Min          58      58     17                 1342     1342     210
     Max          59      59     19                 1345     1345     212
     Sum        1885    1885    553                42999    42999    6747
 
     Using Slab Decomposition
 

     Title: 
     IrO2 Unit Cell                                                             


     bravais-lattice index     =            6
     lattice parameter (alat)  =       8.5888  a.u.
     unit-cell volume          =     444.6868 (a.u.)^3
     number of atoms/cell      =            6
     number of atomic types    =            2
     number of electrons       =        58.00
     number of Kohn-Sham states=           70
     kinetic-energy cutoff     =      80.0000  Ry
     charge density cutoff     =     320.0000  Ry
     scf convergence threshold =      1.0E-09
     mixing beta               =       0.7000
     number of iterations used =            8  plain     mixing
     Exchange-correlation= PBE
                           (   1   4   3   4   0   0   0)
     Non magnetic calculation with spin-orbit


     celldm(1)=   8.588800  celldm(2)=   0.000000  celldm(3)=   0.701870
     celldm(4)=   0.000000  celldm(5)=   0.000000  celldm(6)=   0.000000

     crystal axes: (cart. coord. in units of alat)
               a(1) = (   1.000000   0.000000   0.000000 )  
               a(2) = (   0.000000   1.000000   0.000000 )  
               a(3) = (   0.000000   0.000000   0.701870 )  

     reciprocal axes: (cart. coord. in units 2 pi/alat)
               b(1) = (  1.000000  0.000000  0.000000 )  
               b(2) = (  0.000000  1.000000  0.000000 )  
               b(3) = (  0.000000  0.000000  1.424765 )  


     PseudoPot. # 1 for O  read from file:
     ../../XX_PSEUDO/O_ONCV_PBE_fr.upf
     MD5 check sum: 59c925217d3b58c6d762355590b68b09
     Pseudo is Norm-conserving, Zval =  6.0
     Generated using ONCVPSP code by D. R. Hamann
     Using radial grid of  936 points,  6 beta functions with: 
                l(1) =   0
                l(2) =   0
                l(3) =   1
                l(4) =   1
                l(5) =   1
                l(6) =   1

     PseudoPot. # 2 for Ir read from file:
     ../../XX_PSEUDO/Ir_ONCV_PBE_fr.upf
     MD5 check sum: 924e909c4146afa09f62ee3401806954
     Pseudo is Norm-conserving, Zval = 17.0
     Generated using ONCVPSP code by D. R. Hamann
     Using radial grid of 1310 points, 14 beta functions with: 
                l(1) =   0
                l(2) =   0
                l(3) =   1
                l(4) =   1
                l(5) =   1
                l(6) =   1
                l(7) =   2
                l(8) =   2
                l(9) =   2
               l(10) =   2
               l(11) =   3
               l(12) =   3
               l(13) =   3
               l(14) =   3

     atomic species   valence    mass     pseudopotential
        O              6.00    15.99900     O ( 1.00)
        Ir            17.00   192.21700     Ir( 1.00)

     16 Sym. Ops., with inversion, found ( 8 have fractional translation)


                                    s                        frac. trans.

      isym =  1     identity                                     

 cryst.   s( 1) = (     1          0          0      )
                  (     0          1          0      )
                  (     0          0          1      )

 cart.    s( 1) = (  1.0000000  0.0000000  0.0000000 )
                  (  0.0000000  1.0000000  0.0000000 )
                  (  0.0000000  0.0000000  1.0000000 )


      isym =  2     180 deg rotation - cart. axis [0,0,1]        

 cryst.   s( 2) = (    -1          0          0      )
                  (     0         -1          0      )
                  (     0          0          1      )

 cart.    s( 2) = ( -1.0000000  0.0000000  0.0000000 )
                  (  0.0000000 -1.0000000  0.0000000 )
                  (  0.0000000  0.0000000  1.0000000 )


      isym =  3     180 deg rotation - cart. axis [0,1,0]        

 cryst.   s( 3) = (    -1          0          0      )    f =(  0.5000000 )
                  (     0          1          0      )       ( -0.5000000 )
                  (     0          0         -1      )       (  0.5000000 )

 cart.    s( 3) = ( -1.0000000  0.0000000  0.0000000 )    f =(  0.5000000 )
                  (  0.0000000  1.0000000  0.0000000 )       ( -0.5000000 )
                  (  0.0000000  0.0000000 -1.0000000 )       (  0.3509351 )


      isym =  4     180 deg rotation - cart. axis [1,0,0]        

 cryst.   s( 4) = (     1          0          0      )    f =( -0.5000000 )
                  (     0         -1          0      )       (  0.5000000 )
                  (     0          0         -1      )       (  0.5000000 )

 cart.    s( 4) = (  1.0000000  0.0000000  0.0000000 )    f =( -0.5000000 )
                  (  0.0000000 -1.0000000  0.0000000 )       (  0.5000000 )
                  (  0.0000000  0.0000000 -1.0000000 )       (  0.3509351 )


      isym =  5     180 deg rotation - cart. axis [1,1,0]        

 cryst.   s( 5) = (     0          1          0      )
                  (     1          0          0      )
                  (     0          0         -1      )

 cart.    s( 5) = (  0.0000000  1.0000000  0.0000000 )
                  (  1.0000000  0.0000000  0.0000000 )
                  (  0.0000000  0.0000000 -1.0000000 )


      isym =  6     180 deg rotation - cart. axis [1,-1,0]       

 cryst.   s( 6) = (     0         -1          0      )
                  (    -1          0          0      )
                  (     0          0         -1      )

 cart.    s( 6) = (  0.0000000 -1.0000000  0.0000000 )
                  ( -1.0000000  0.0000000  0.0000000 )
                  (  0.0000000  0.0000000 -1.0000000 )


      isym =  7      90 deg rotation - cart. axis [0,0,-1]       

 cryst.   s( 7) = (     0         -1          0      )    f =( -0.5000000 )
                  (     1          0          0      )       (  0.5000000 )
                  (     0          0          1      )       ( -0.5000000 )

 cart.    s( 7) = (  0.0000000  1.0000000  0.0000000 )    f =( -0.5000000 )
                  ( -1.0000000  0.0000000  0.0000000 )       (  0.5000000 )
                  (  0.0000000  0.0000000  1.0000000 )       ( -0.3509351 )


      isym =  8      90 deg rotation - cart. axis [0,0,1]        

 cryst.   s( 8) = (     0          1          0      )    f =(  0.5000000 )
                  (    -1          0          0      )       ( -0.5000000 )
                  (     0          0          1      )       ( -0.5000000 )

 cart.    s( 8) = (  0.0000000 -1.0000000  0.0000000 )    f =(  0.5000000 )
                  (  1.0000000  0.0000000  0.0000000 )       ( -0.5000000 )
                  (  0.0000000  0.0000000  1.0000000 )       ( -0.3509351 )


      isym =  9     inversion                                    

 cryst.   s( 9) = (    -1          0          0      )
                  (     0         -1          0      )
                  (     0          0         -1      )

 cart.    s( 9) = ( -1.0000000  0.0000000  0.0000000 )
                  (  0.0000000 -1.0000000  0.0000000 )
                  (  0.0000000  0.0000000 -1.0000000 )


      isym = 10     inv. 180 deg rotation - cart. axis [0,0,1]   

 cryst.   s(10) = (     1          0          0      )
                  (     0          1          0      )
                  (     0          0         -1      )

 cart.    s(10) = (  1.0000000  0.0000000  0.0000000 )
                  (  0.0000000  1.0000000  0.0000000 )
                  (  0.0000000  0.0000000 -1.0000000 )


      isym = 11     inv. 180 deg rotation - cart. axis [0,1,0]   

 cryst.   s(11) = (     1          0          0      )    f =( -0.5000000 )
                  (     0         -1          0      )       (  0.5000000 )
                  (     0          0          1      )       ( -0.5000000 )

 cart.    s(11) = (  1.0000000  0.0000000  0.0000000 )    f =( -0.5000000 )
                  (  0.0000000 -1.0000000  0.0000000 )       (  0.5000000 )
                  (  0.0000000  0.0000000  1.0000000 )       ( -0.3509351 )


      isym = 12     inv. 180 deg rotation - cart. axis [1,0,0]   

 cryst.   s(12) = (    -1          0          0      )    f =(  0.5000000 )
                  (     0          1          0      )       ( -0.5000000 )
                  (     0          0          1      )       ( -0.5000000 )

 cart.    s(12) = ( -1.0000000  0.0000000  0.0000000 )    f =(  0.5000000 )
                  (  0.0000000  1.0000000  0.0000000 )       ( -0.5000000 )
                  (  0.0000000  0.0000000  1.0000000 )       ( -0.3509351 )


      isym = 13     inv. 180 deg rotation - cart. axis [1,1,0]   

 cryst.   s(13) = (     0         -1          0      )
                  (    -1          0          0      )
                  (     0          0          1      )

 cart.    s(13) = (  0.0000000 -1.0000000  0.0000000 )
                  ( -1.0000000  0.0000000  0.0000000 )
                  (  0.0000000  0.0000000  1.0000000 )


      isym = 14     inv. 180 deg rotation - cart. axis [1,-1,0]  

 cryst.   s(14) = (     0          1          0      )
                  (     1          0          0      )
                  (     0          0          1      )

 cart.    s(14) = (  0.0000000  1.0000000  0.0000000 )
                  (  1.0000000  0.0000000  0.0000000 )
                  (  0.0000000  0.0000000  1.0000000 )


      isym = 15     inv.  90 deg rotation - cart. axis [0,0,-1]  

 cryst.   s(15) = (     0          1          0      )    f =(  0.5000000 )
                  (    -1          0          0      )       ( -0.5000000 )
                  (     0          0         -1      )       (  0.5000000 )

 cart.    s(15) = (  0.0000000 -1.0000000  0.0000000 )    f =(  0.5000000 )
                  (  1.0000000  0.0000000  0.0000000 )       ( -0.5000000 )
                  (  0.0000000  0.0000000 -1.0000000 )       (  0.3509351 )


      isym = 16     inv.  90 deg rotation - cart. axis [0,0,1]   

 cryst.   s(16) = (     0         -1          0      )    f =( -0.5000000 )
                  (     1          0          0      )       (  0.5000000 )
                  (     0          0         -1      )       (  0.5000000 )

 cart.    s(16) = (  0.0000000  1.0000000  0.0000000 )    f =( -0.5000000 )
                  ( -1.0000000  0.0000000  0.0000000 )       (  0.5000000 )
                  (  0.0000000  0.0000000 -1.0000000 )       (  0.3509351 )


     double point group D_4h(4/mmm)
     there are 14 classes and  4 irreducible representations
     the character table:

       E     -E    2C4   -2C4   C2    2C2' 2C2'' i     -i    2S4   -2S4   s_h 
                               -C2   -2C2' -2C2'                         -s_h 
G_6+   2.00 -2.00  1.41 -1.41  0.00  0.00  0.00  2.00 -2.00  1.41 -1.41  0.00
G_7+   2.00 -2.00 -1.41  1.41  0.00  0.00  0.00  2.00 -2.00 -1.41  1.41  0.00
G_6-   2.00 -2.00  1.41 -1.41  0.00  0.00  0.00 -2.00  2.00 -1.41  1.41  0.00
G_7-   2.00 -2.00 -1.41  1.41  0.00  0.00  0.00 -2.00  2.00  1.41 -1.41  0.00

        2s_v  2s_d
       -2s_v -2s_d
G_6+   0.00  0.00
G_7+   0.00  0.00
G_6-   0.00  0.00
G_7-   0.00  0.00

     the symmetry operations in each class and the name of the first element:

     E             1
          identity                                               
     -E           -1
          identity E                                             
     2C4           7    8
           90 deg rotation - cart. axis [0,0,-1]                 
     -2C4         -7   -8
           90 deg rotation - cart. axis [0,0,-1] E               
      C2  -C2      2   -2
          180 deg rotation - cart. axis [0,0,1]                  
      2C2'-2C2'    3   -3    4   -4
          180 deg rotation - cart. axis [0,1,0]                  
     2C2''-2C2'    5   -5   -6    6
          180 deg rotation - cart. axis [1,1,0]                  
     i             9
          inversion                                              
     -i           -9
          inversion E                                            
     2S4          15   16
          inv.  90 deg rotation - cart. axis [0,0,-1]            
     -2S4        -15  -16
          inv.  90 deg rotation - cart. axis [0,0,-1] E          
      s_h -s_h    10  -10
          inv. 180 deg rotation - cart. axis [0,0,1]             
      2s_v-2s_v   11  -11   12  -12
          inv. 180 deg rotation - cart. axis [0,1,0]             
      2s_d-2s_d   13  -13  -14   14
          inv. 180 deg rotation - cart. axis [1,1,0]             

   Cartesian axes

     site n.     atom                  positions (alat units)
         1           Ir  tau(   1) = (   0.0000000   0.0000000   0.0000000  )
         2           Ir  tau(   2) = (   0.5000000   0.5000000   0.3509351  )
         3           O   tau(   3) = (   0.1916000   0.8084000   0.3509351  )
         4           O   tau(   4) = (   0.3084000   0.3084000   0.0000000  )
         5           O   tau(   5) = (   0.6916000   0.6916000   0.0000000  )
         6           O   tau(   6) = (   0.8084000   0.1916000   0.3509351  )

   Crystallographic axes

     site n.     atom                  positions (cryst. coord.)
         1           Ir  tau(   1) = (  0.0000000  0.0000000  0.0000000  )
         2           Ir  tau(   2) = (  0.5000000  0.5000000  0.5000000  )
         3           O   tau(   3) = (  0.1916000  0.8084000  0.5000000  )
         4           O   tau(   4) = (  0.3084000  0.3084000  0.0000000  )
         5           O   tau(   5) = (  0.6916000  0.6916000  0.0000000  )
         6           O   tau(   6) = (  0.8084000  0.1916000  0.5000000  )

     number of k points=    75  Methfessel-Paxton smearing, width (Ry)=  0.0050
                       cart. coord. in units 2pi/alat
        k(    1) = (   0.0000000   0.0000000   0.0000000), wk =   0.0015432
        k(    2) = (   0.0000000   0.0000000   0.1780956), wk =   0.0030864
        k(    3) = (   0.0000000   0.0000000   0.3561912), wk =   0.0030864
        k(    4) = (   0.0000000   0.0000000   0.5342868), wk =   0.0030864
        k(    5) = (   0.0000000   0.0000000  -0.7123824), wk =   0.0015432
        k(    6) = (   0.0000000   0.1111111   0.0000000), wk =   0.0061728
        k(    7) = (   0.0000000   0.1111111   0.1780956), wk =   0.0123457
        k(    8) = (   0.0000000   0.1111111   0.3561912), wk =   0.0123457
        k(    9) = (   0.0000000   0.1111111   0.5342868), wk =   0.0123457
        k(   10) = (   0.0000000   0.1111111  -0.7123824), wk =   0.0061728
        k(   11) = (   0.0000000   0.2222222   0.0000000), wk =   0.0061728
        k(   12) = (   0.0000000   0.2222222   0.1780956), wk =   0.0123457
        k(   13) = (   0.0000000   0.2222222   0.3561912), wk =   0.0123457
        k(   14) = (   0.0000000   0.2222222   0.5342868), wk =   0.0123457
        k(   15) = (   0.0000000   0.2222222  -0.7123824), wk =   0.0061728
        k(   16) = (   0.0000000   0.3333333   0.0000000), wk =   0.0061728
        k(   17) = (   0.0000000   0.3333333   0.1780956), wk =   0.0123457
        k(   18) = (   0.0000000   0.3333333   0.3561912), wk =   0.0123457
        k(   19) = (   0.0000000   0.3333333   0.5342868), wk =   0.0123457
        k(   20) = (   0.0000000   0.3333333  -0.7123824), wk =   0.0061728
        k(   21) = (   0.0000000   0.4444444   0.0000000), wk =   0.0061728
        k(   22) = (   0.0000000   0.4444444   0.1780956), wk =   0.0123457
        k(   23) = (   0.0000000   0.4444444   0.3561912), wk =   0.0123457
        k(   24) = (   0.0000000   0.4444444   0.5342868), wk =   0.0123457
        k(   25) = (   0.0000000   0.4444444  -0.7123824), wk =   0.0061728
        k(   26) = (   0.1111111   0.1111111   0.0000000), wk =   0.0061728
        k(   27) = (   0.1111111   0.1111111   0.1780956), wk =   0.0123457
        k(   28) = (   0.1111111   0.1111111   0.3561912), wk =   0.0123457
        k(   29) = (   0.1111111   0.1111111   0.5342868), wk =   0.0123457
        k(   30) = (   0.1111111   0.1111111  -0.7123824), wk =   0.0061728
        k(   31) = (   0.1111111   0.2222222   0.0000000), wk =   0.0123457
        k(   32) = (   0.1111111   0.2222222   0.1780956), wk =   0.0246914
        k(   33) = (   0.1111111   0.2222222   0.3561912), wk =   0.0246914
        k(   34) = (   0.1111111   0.2222222   0.5342868), wk =   0.0246914
        k(   35) = (   0.1111111   0.2222222  -0.7123824), wk =   0.0123457
        k(   36) = (   0.1111111   0.3333333   0.0000000), wk =   0.0123457
        k(   37) = (   0.1111111   0.3333333   0.1780956), wk =   0.0246914
        k(   38) = (   0.1111111   0.3333333   0.3561912), wk =   0.0246914
        k(   39) = (   0.1111111   0.3333333   0.5342868), wk =   0.0246914
        k(   40) = (   0.1111111   0.3333333  -0.7123824), wk =   0.0123457
        k(   41) = (   0.1111111   0.4444444   0.0000000), wk =   0.0123457
        k(   42) = (   0.1111111   0.4444444   0.1780956), wk =   0.0246914
        k(   43) = (   0.1111111   0.4444444   0.3561912), wk =   0.0246914
        k(   44) = (   0.1111111   0.4444444   0.5342868), wk =   0.0246914
        k(   45) = (   0.1111111   0.4444444  -0.7123824), wk =   0.0123457
        k(   46) = (   0.2222222   0.2222222   0.0000000), wk =   0.0061728
        k(   47) = (   0.2222222   0.2222222   0.1780956), wk =   0.0123457
        k(   48) = (   0.2222222   0.2222222   0.3561912), wk =   0.0123457
        k(   49) = (   0.2222222   0.2222222   0.5342868), wk =   0.0123457
        k(   50) = (   0.2222222   0.2222222  -0.7123824), wk =   0.0061728
        k(   51) = (   0.2222222   0.3333333   0.0000000), wk =   0.0123457
        k(   52) = (   0.2222222   0.3333333   0.1780956), wk =   0.0246914
        k(   53) = (   0.2222222   0.3333333   0.3561912), wk =   0.0246914
        k(   54) = (   0.2222222   0.3333333   0.5342868), wk =   0.0246914
        k(   55) = (   0.2222222   0.3333333  -0.7123824), wk =   0.0123457
        k(   56) = (   0.2222222   0.4444444   0.0000000), wk =   0.0123457
        k(   57) = (   0.2222222   0.4444444   0.1780956), wk =   0.0246914
        k(   58) = (   0.2222222   0.4444444   0.3561912), wk =   0.0246914
        k(   59) = (   0.2222222   0.4444444   0.5342868), wk =   0.0246914
        k(   60) = (   0.2222222   0.4444444  -0.7123824), wk =   0.0123457
        k(   61) = (   0.3333333   0.3333333   0.0000000), wk =   0.0061728
        k(   62) = (   0.3333333   0.3333333   0.1780956), wk =   0.0123457
        k(   63) = (   0.3333333   0.3333333   0.3561912), wk =   0.0123457
        k(   64) = (   0.3333333   0.3333333   0.5342868), wk =   0.0123457
        k(   65) = (   0.3333333   0.3333333  -0.7123824), wk =   0.0061728
        k(   66) = (   0.3333333   0.4444444   0.0000000), wk =   0.0123457
        k(   67) = (   0.3333333   0.4444444   0.1780956), wk =   0.0246914
        k(   68) = (   0.3333333   0.4444444   0.3561912), wk =   0.0246914
        k(   69) = (   0.3333333   0.4444444   0.5342868), wk =   0.0246914
        k(   70) = (   0.3333333   0.4444444  -0.7123824), wk =   0.0123457
        k(   71) = (   0.4444444   0.4444444   0.0000000), wk =   0.0061728
        k(   72) = (   0.4444444   0.4444444   0.1780956), wk =   0.0123457
        k(   73) = (   0.4444444   0.4444444   0.3561912), wk =   0.0123457
        k(   74) = (   0.4444444   0.4444444   0.5342868), wk =   0.0123457
        k(   75) = (   0.4444444   0.4444444  -0.7123824), wk =   0.0061728

                       cryst. coord.
        k(    1) = (   0.0000000   0.0000000   0.0000000), wk =   0.0015432
        k(    2) = (   0.0000000   0.0000000   0.1250000), wk =   0.0030864
        k(    3) = (   0.0000000   0.0000000   0.2500000), wk =   0.0030864
        k(    4) = (   0.0000000   0.0000000   0.3750000), wk =   0.0030864
        k(    5) = (   0.0000000   0.0000000  -0.5000000), wk =   0.0015432
        k(    6) = (   0.0000000   0.1111111   0.0000000), wk =   0.0061728
        k(    7) = (   0.0000000   0.1111111   0.1250000), wk =   0.0123457
        k(    8) = (   0.0000000   0.1111111   0.2500000), wk =   0.0123457
        k(    9) = (   0.0000000   0.1111111   0.3750000), wk =   0.0123457
        k(   10) = (   0.0000000   0.1111111  -0.5000000), wk =   0.0061728
        k(   11) = (   0.0000000   0.2222222   0.0000000), wk =   0.0061728
        k(   12) = (   0.0000000   0.2222222   0.1250000), wk =   0.0123457
        k(   13) = (   0.0000000   0.2222222   0.2500000), wk =   0.0123457
        k(   14) = (   0.0000000   0.2222222   0.3750000), wk =   0.0123457
        k(   15) = (   0.0000000   0.2222222  -0.5000000), wk =   0.0061728
        k(   16) = (   0.0000000   0.3333333   0.0000000), wk =   0.0061728
        k(   17) = (   0.0000000   0.3333333   0.1250000), wk =   0.0123457
        k(   18) = (   0.0000000   0.3333333   0.2500000), wk =   0.0123457
        k(   19) = (   0.0000000   0.3333333   0.3750000), wk =   0.0123457
        k(   20) = (   0.0000000   0.3333333  -0.5000000), wk =   0.0061728
        k(   21) = (   0.0000000   0.4444444   0.0000000), wk =   0.0061728
        k(   22) = (   0.0000000   0.4444444   0.1250000), wk =   0.0123457
        k(   23) = (   0.0000000   0.4444444   0.2500000), wk =   0.0123457
        k(   24) = (   0.0000000   0.4444444   0.3750000), wk =   0.0123457
        k(   25) = (   0.0000000   0.4444444  -0.5000000), wk =   0.0061728
        k(   26) = (   0.1111111   0.1111111   0.0000000), wk =   0.0061728
        k(   27) = (   0.1111111   0.1111111   0.1250000), wk =   0.0123457
        k(   28) = (   0.1111111   0.1111111   0.2500000), wk =   0.0123457
        k(   29) = (   0.1111111   0.1111111   0.3750000), wk =   0.0123457
        k(   30) = (   0.1111111   0.1111111  -0.5000000), wk =   0.0061728
        k(   31) = (   0.1111111   0.2222222   0.0000000), wk =   0.0123457
        k(   32) = (   0.1111111   0.2222222   0.1250000), wk =   0.0246914
        k(   33) = (   0.1111111   0.2222222   0.2500000), wk =   0.0246914
        k(   34) = (   0.1111111   0.2222222   0.3750000), wk =   0.0246914
        k(   35) = (   0.1111111   0.2222222  -0.5000000), wk =   0.0123457
        k(   36) = (   0.1111111   0.3333333   0.0000000), wk =   0.0123457
        k(   37) = (   0.1111111   0.3333333   0.1250000), wk =   0.0246914
        k(   38) = (   0.1111111   0.3333333   0.2500000), wk =   0.0246914
        k(   39) = (   0.1111111   0.3333333   0.3750000), wk =   0.0246914
        k(   40) = (   0.1111111   0.3333333  -0.5000000), wk =   0.0123457
        k(   41) = (   0.1111111   0.4444444   0.0000000), wk =   0.0123457
        k(   42) = (   0.1111111   0.4444444   0.1250000), wk =   0.0246914
        k(   43) = (   0.1111111   0.4444444   0.2500000), wk =   0.0246914
        k(   44) = (   0.1111111   0.4444444   0.3750000), wk =   0.0246914
        k(   45) = (   0.1111111   0.4444444  -0.5000000), wk =   0.0123457
        k(   46) = (   0.2222222   0.2222222   0.0000000), wk =   0.0061728
        k(   47) = (   0.2222222   0.2222222   0.1250000), wk =   0.0123457
        k(   48) = (   0.2222222   0.2222222   0.2500000), wk =   0.0123457
        k(   49) = (   0.2222222   0.2222222   0.3750000), wk =   0.0123457
        k(   50) = (   0.2222222   0.2222222  -0.5000000), wk =   0.0061728
        k(   51) = (   0.2222222   0.3333333   0.0000000), wk =   0.0123457
        k(   52) = (   0.2222222   0.3333333   0.1250000), wk =   0.0246914
        k(   53) = (   0.2222222   0.3333333   0.2500000), wk =   0.0246914
        k(   54) = (   0.2222222   0.3333333   0.3750000), wk =   0.0246914
        k(   55) = (   0.2222222   0.3333333  -0.5000000), wk =   0.0123457
        k(   56) = (   0.2222222   0.4444444   0.0000000), wk =   0.0123457
        k(   57) = (   0.2222222   0.4444444   0.1250000), wk =   0.0246914
        k(   58) = (   0.2222222   0.4444444   0.2500000), wk =   0.0246914
        k(   59) = (   0.2222222   0.4444444   0.3750000), wk =   0.0246914
        k(   60) = (   0.2222222   0.4444444  -0.5000000), wk =   0.0123457
        k(   61) = (   0.3333333   0.3333333   0.0000000), wk =   0.0061728
        k(   62) = (   0.3333333   0.3333333   0.1250000), wk =   0.0123457
        k(   63) = (   0.3333333   0.3333333   0.2500000), wk =   0.0123457
        k(   64) = (   0.3333333   0.3333333   0.3750000), wk =   0.0123457
        k(   65) = (   0.3333333   0.3333333  -0.5000000), wk =   0.0061728
        k(   66) = (   0.3333333   0.4444444   0.0000000), wk =   0.0123457
        k(   67) = (   0.3333333   0.4444444   0.1250000), wk =   0.0246914
        k(   68) = (   0.3333333   0.4444444   0.2500000), wk =   0.0246914
        k(   69) = (   0.3333333   0.4444444   0.3750000), wk =   0.0246914
        k(   70) = (   0.3333333   0.4444444  -0.5000000), wk =   0.0123457
        k(   71) = (   0.4444444   0.4444444   0.0000000), wk =   0.0061728
        k(   72) = (   0.4444444   0.4444444   0.1250000), wk =   0.0123457
        k(   73) = (   0.4444444   0.4444444   0.2500000), wk =   0.0123457
        k(   74) = (   0.4444444   0.4444444   0.3750000), wk =   0.0123457
        k(   75) = (   0.4444444   0.4444444  -0.5000000), wk =   0.0061728

     Dense  grid:    42999 G-vectors     FFT dimensions: (  50,  50,  36)

     Dynamical RAM for                 wfc:       0.36 MB

     Dynamical RAM for     wfc (w. buffer):      27.11 MB

     Dynamical RAM for           str. fact:       0.04 MB

     Dynamical RAM for           local pot:       0.00 MB

     Dynamical RAM for          nlocal pot:       0.46 MB

     Dynamical RAM for                qrad:      20.10 MB

     Dynamical RAM for          rho,v,vnew:       0.70 MB

     Dynamical RAM for               rhoin:       0.23 MB

     Dynamical RAM for            rho*nmix:       1.31 MB

     Dynamical RAM for           G-vectors:       0.09 MB

     Dynamical RAM for          h,s,v(r/c):       0.04 MB

     Dynamical RAM for          <psi|beta>:       0.38 MB

     Dynamical RAM for                 psi:       0.71 MB

     Dynamical RAM for                hpsi:       0.71 MB

     Dynamical RAM for      wfcinit/wfcrot:       0.67 MB

     Estimated static dynamical RAM per process >      49.10 MB

     Estimated max dynamical RAM per process >      52.26 MB

     Estimated total dynamical RAM >       1.63 GB

     Initial potential from superposition of free atoms

     starting charge      57.9997, renormalised to      58.0000
     Starting wfcs are   72 randomized atomic wfcs

     total cpu time spent up to now is        4.0 secs

     Self-consistent Calculation

     iteration #  1     ecut=    80.00 Ry     beta= 0.70
     Davidson diagonalization with overlap

---- Real-time Memory Report at c_bands before calling an iterative solver
           103 MiB given to the printing process from OS
             0 MiB allocation reported by mallinfo(arena+hblkhd)
        228428 MiB available memory on the node where the printing process lives
------------------
     ethr =  1.00E-02,  avg # of iterations =  2.8

     total cpu time spent up to now is       17.0 secs

     total energy              =    -552.42661121 Ry
     estimated scf accuracy    <       1.21494512 Ry

     iteration #  2     ecut=    80.00 Ry     beta= 0.70
     Davidson diagonalization with overlap

---- Real-time Memory Report at c_bands before calling an iterative solver
           109 MiB given to the printing process from OS
             0 MiB allocation reported by mallinfo(arena+hblkhd)
        228280 MiB available memory on the node where the printing process lives
------------------
     ethr =  2.09E-03,  avg # of iterations =  2.0

     total cpu time spent up to now is       31.2 secs

     total energy              =    -552.27996430 Ry
     estimated scf accuracy    <       4.28911443 Ry

     iteration #  3     ecut=    80.00 Ry     beta= 0.70
     Davidson diagonalization with overlap

---- Real-time Memory Report at c_bands before calling an iterative solver
           111 MiB given to the printing process from OS
             0 MiB allocation reported by mallinfo(arena+hblkhd)
        228252 MiB available memory on the node where the printing process lives
------------------
     ethr =  2.09E-03,  avg # of iterations =  2.0

     total cpu time spent up to now is       44.4 secs

     total energy              =    -553.07541095 Ry
     estimated scf accuracy    <       0.03388433 Ry

     iteration #  4     ecut=    80.00 Ry     beta= 0.70
     Davidson diagonalization with overlap

---- Real-time Memory Report at c_bands before calling an iterative solver
           114 MiB given to the printing process from OS
             0 MiB allocation reported by mallinfo(arena+hblkhd)
        228222 MiB available memory on the node where the printing process lives
------------------
     ethr =  5.84E-05,  avg # of iterations =  2.7

     total cpu time spent up to now is       58.0 secs

     total energy              =    -553.07904079 Ry
     estimated scf accuracy    <       0.00481102 Ry

     iteration #  5     ecut=    80.00 Ry     beta= 0.70
     Davidson diagonalization with overlap

---- Real-time Memory Report at c_bands before calling an iterative solver
           114 MiB given to the printing process from OS
             0 MiB allocation reported by mallinfo(arena+hblkhd)
        228205 MiB available memory on the node where the printing process lives
------------------
     ethr =  8.29E-06,  avg # of iterations =  2.6

     total cpu time spent up to now is       70.0 secs

     total energy              =    -553.07988356 Ry
     estimated scf accuracy    <       0.00026903 Ry

     iteration #  6     ecut=    80.00 Ry     beta= 0.70
     Davidson diagonalization with overlap

---- Real-time Memory Report at c_bands before calling an iterative solver
           115 MiB given to the printing process from OS
             0 MiB allocation reported by mallinfo(arena+hblkhd)
        228193 MiB available memory on the node where the printing process lives
------------------
     ethr =  4.64E-07,  avg # of iterations =  3.7

     total cpu time spent up to now is       82.5 secs

     total energy              =    -553.07991647 Ry
     estimated scf accuracy    <       0.00001097 Ry

     iteration #  7     ecut=    80.00 Ry     beta= 0.70
     Davidson diagonalization with overlap

---- Real-time Memory Report at c_bands before calling an iterative solver
           115 MiB given to the printing process from OS
             0 MiB allocation reported by mallinfo(arena+hblkhd)
        228191 MiB available memory on the node where the printing process lives
------------------
     ethr =  1.89E-08,  avg # of iterations =  2.0

     total cpu time spent up to now is       96.2 secs

     total energy              =    -553.07992004 Ry
     estimated scf accuracy    <       0.00000060 Ry

     iteration #  8     ecut=    80.00 Ry     beta= 0.70
     Davidson diagonalization with overlap

---- Real-time Memory Report at c_bands before calling an iterative solver
           116 MiB given to the printing process from OS
             0 MiB allocation reported by mallinfo(arena+hblkhd)
        228138 MiB available memory on the node where the printing process lives
------------------
     ethr =  1.03E-09,  avg # of iterations =  2.0

     total cpu time spent up to now is      108.0 secs

     total energy              =    -553.07992006 Ry
     estimated scf accuracy    <       0.00000011 Ry

     iteration #  9     ecut=    80.00 Ry     beta= 0.70
     Davidson diagonalization with overlap

---- Real-time Memory Report at c_bands before calling an iterative solver
           117 MiB given to the printing process from OS
             0 MiB allocation reported by mallinfo(arena+hblkhd)
        228137 MiB available memory on the node where the printing process lives
------------------
     ethr =  1.81E-10,  avg # of iterations =  2.0

     total cpu time spent up to now is      121.0 secs

     total energy              =    -553.07992009 Ry
     estimated scf accuracy    <          4.2E-09 Ry

     iteration # 10     ecut=    80.00 Ry     beta= 0.70
     Davidson diagonalization with overlap

---- Real-time Memory Report at c_bands before calling an iterative solver
           117 MiB given to the printing process from OS
             0 MiB allocation reported by mallinfo(arena+hblkhd)
        228134 MiB available memory on the node where the printing process lives
------------------
     ethr =  7.29E-12,  avg # of iterations =  2.1

     total cpu time spent up to now is      134.3 secs

     End of self-consistent calculation

          k = 0.0000 0.0000 0.0000 (  5409 PWs)   bands (ev):

   -79.3832 -79.3832 -79.3819 -79.3819 -46.2257 -46.2257 -46.2150 -46.2150
   -32.7645 -32.7645 -32.7534 -32.7534 -32.6217 -32.6217 -32.6077 -32.6077
    -7.0739  -7.0739  -5.9180  -5.9180  -5.0031  -5.0031  -4.8016  -4.8016
     4.2695   4.2695   4.5169   4.5169   6.0334   6.0334   6.1449   6.1449
     6.2583   6.2583   8.7864   8.7864   8.9384   8.9384   9.1960   9.1960
    10.3335  10.3335  10.9886  10.9886  10.9920  10.9920  11.0311  11.0311
    11.2044  11.2044  11.3850  11.3850  11.6467  11.6467  11.6742  11.6742
    12.0589  12.0589  14.6457  14.6457  15.0715  15.0715  17.6891  17.6891
    17.8972  17.8972  18.0463  18.0463  19.4489  19.4489

     occupation numbers 
     1.0000   1.0000   1.0000   1.0000   1.0000   1.0000   1.0000   1.0000
     1.0000   1.0000   1.0000   1.0000   1.0000   1.0000   1.0000   1.0000
     1.0000   1.0000   1.0000   1.0000   1.0000   1.0000   1.0000   1.0000
     1.0000   1.0000   1.0000   1.0000   1.0000   1.0000   1.0000   1.0000
     1.0000   1.0000   1.0000   1.0000   1.0000   1.0000   1.0000   1.0000
     1.0000   1.0000   1.0000   1.0000   1.0000   1.0000   1.0000   1.0000
     1.0000   1.0000   1.0000   1.0000   1.0000   1.0000   1.0000   1.0000
     1.0000   1.0000  -0.0000  -0.0000  -0.0000  -0.0000  -0.0000  -0.0000
    -0.0000  -0.0000  -0.0000  -0.0000  -0.0000  -0.0000

          k = 0.0000 0.0000 0.1781 (  5369 PWs)   bands (ev):

   -79.3829 -79.3829 -79.3816 -79.3816 -46.2270 -46.2270 -46.2171 -46.2171
   -32.7679 -32.7679 -32.7618 -32.7618 -32.6279 -32.6279 -32.6108 -32.6108
    -6.9326  -6.9326  -5.8451  -5.8451  -5.0690  -5.0690  -4.8900  -4.8900
     4.4755   4.4755   4.6654   4.6654   6.1562   6.1562   6.2301   6.2301
     6.4089   6.4089   8.2476   8.2476   9.0441   9.0441   9.3038   9.3038
     9.5391   9.5391  10.1224  10.1224  10.2302  10.2302  11.2935  11.2935
    11.6184  11.6184  11.6422  11.6422  11.7609  11.7609  12.3603  12.3603
    12.4498  12.4498  14.9248  14.9248  14.9738  14.9738  17.3279  17.3279
    17.6444  17.6444  18.2988  18.2988  19.1815  19.1815

     occupation numbers 
     1.0000   1.0000   1.0000   1.0000   1.0000   1.0000   1.0000   1.0000
     1.0000   1.0000   1.0000   1.0000   1.0000   1.0000   1.0000   1.0000
     1.0000   1.0000   1.0000   1.0000   1.0000   1.0000   1.0000   1.0000
     1.0000   1.0000   1.0000   1.0000   1.0000   1.0000   1.0000   1.0000
     1.0000   1.0000   1.0000   1.0000   1.0000   1.0000   1.0000   1.0000
     1.0000   1.0000   1.0000   1.0000   1.0000   1.0000   1.0000   1.0000
     1.0000   1.0000   1.0000   1.0000   1.0000   1.0000   1.0000   1.0000
     1.0000   1.0000  -0.0000  -0.0000  -0.0000  -0.0000  -0.0000  -0.0000
    -0.0000  -0.0000  -0.0000  -0.0000  -0.0000  -0.0000

          k = 0.0000 0.0000 0.3562 (  5381 PWs)   bands (ev):

   -79.3819 -79.3819 -79.3810 -79.3810 -46.2298 -46.2298 -46.2222 -46.2222
   -32.7830 -32.7830 -32.7806 -32.7806 -32.6376 -32.6376 -32.6173 -32.6173
    -6.5592  -6.5592  -5.6915  -5.6915  -5.2182  -5.2182  -5.0984  -5.0984
     5.0377   5.0377   5.0451   5.0451   6.4671   6.4671   6.4701   6.4701
     6.8575   6.8575   7.2527   7.2527   8.2930   8.2930   9.1141   9.1141
     9.3292   9.3292   9.4453   9.4453   9.7653   9.7653  10.5849  10.5849
    11.7980  11.7980  11.9547  11.9547  12.1528  12.1528  13.1818  13.1818
    13.2020  13.2020  14.5206  14.5206  15.6434  15.6434  16.6631  16.6631
    16.9551  16.9551  17.9992  17.9992  19.8595  19.8595

     occupation numbers 
     1.0000   1.0000   1.0000   1.0000   1.0000   1.0000   1.0000   1.0000
     1.0000   1.0000   1.0000   1.0000   1.0000   1.0000   1.0000   1.0000
     1.0000   1.0000   1.0000   1.0000   1.0000   1.0000   1.0000   1.0000
     1.0000   1.0000   1.0000   1.0000   1.0000   1.0000   1.0000   1.0000
     1.0000   1.0000   1.0000   1.0000   1.0000   1.0000   1.0000   1.0000
     1.0000   1.0000   1.0000   1.0000   1.0000   1.0000   1.0000   1.0000
     1.0000   1.0000   1.0000   1.0000   1.0000   1.0000   1.0000   1.0000
     1.0000   1.0000  -0.0000  -0.0000  -0.0000  -0.0000  -0.0000  -0.0000
    -0.0000  -0.0000  -0.0000  -0.0000  -0.0000  -0.0000

          k = 0.0000 0.0000 0.5343 (  5393 PWs)   bands (ev):

   -79.3809 -79.3809 -79.3804 -79.3804 -46.2320 -46.2320 -46.2279 -46.2279
   -32.8045 -32.8045 -32.8004 -32.8004 -32.6387 -32.6387 -32.6247 -32.6247
    -6.0945  -6.0945  -5.6137  -5.6137  -5.3496  -5.3496  -5.3049  -5.3049
     5.4595   5.4595   5.7054   5.7054   6.4516   6.4516   6.8516   6.8516
     6.9012   6.9012   7.3414   7.3414   7.5960   7.5960   8.4804   8.4804
     8.6093   8.6093   9.5876   9.5876   9.7587   9.7587   9.9599   9.9599
    11.7920  11.7920  12.1418  12.1418  12.4589  12.4589  13.5924  13.5924
    13.8264  13.8264  14.0994  14.0994  16.0608  16.0608  16.2273  16.2273
    16.5477  16.5477  17.0902  17.0902  21.4169  21.4169

     occupation numbers 
     1.0000   1.0000   1.0000   1.0000   1.0000   1.0000   1.0000   1.0000
     1.0000   1.0000   1.0000   1.0000   1.0000   1.0000   1.0000   1.0000
     1.0000   1.0000   1.0000   1.0000   1.0000   1.0000   1.0000   1.0000
     1.0000   1.0000   1.0000   1.0000   1.0000   1.0000   1.0000   1.0000
     1.0000   1.0000   1.0000   1.0000   1.0000   1.0000   1.0000   1.0000
     1.0000   1.0000   1.0000   1.0000   1.0000   1.0000   1.0000   1.0000
     1.0000   1.0000   1.0000   1.0000   1.0000   1.0000   1.0000   1.0000
     0.9759   0.9759  -0.0000  -0.0000  -0.0000  -0.0000  -0.0000  -0.0000
    -0.0000  -0.0000  -0.0000  -0.0000  -0.0000  -0.0000

          k = 0.0000 0.0000-0.7124 (  5314 PWs)   bands (ev):

   -79.3803 -79.3803 -79.3803 -79.3803 -46.2316 -46.2316 -46.2316 -46.2316
   -32.8119 -32.8119 -32.8119 -32.8119 -32.6325 -32.6325 -32.6325 -32.6325
    -5.7332  -5.7332  -5.7332  -5.7332  -5.4004  -5.4004  -5.4004  -5.4004
     5.7333   5.7333   5.7333   5.7333   6.7027   6.7027   6.7027   6.7027
     7.0988   7.0988   7.0988   7.0988   8.2020   8.2020   8.2020   8.2020
     8.5515   8.5515   8.5515   8.5515   9.9575   9.9575   9.9575   9.9575
    11.8966  11.8966  11.8966  11.8966  13.0825  13.0825  13.0825  13.0825
    14.1214  14.1214  14.1214  14.1214  16.0949  16.0949  16.0949  16.0949
    16.6098  16.6098  16.6098  16.6098  22.9242  22.9242

     occupation numbers 
     1.0000   1.0000   1.0000   1.0000   1.0000   1.0000   1.0000   1.0000
     1.0000   1.0000   1.0000   1.0000   1.0000   1.0000   1.0000   1.0000
     1.0000   1.0000   1.0000   1.0000   1.0000   1.0000   1.0000   1.0000
     1.0000   1.0000   1.0000   1.0000   1.0000   1.0000   1.0000   1.0000
     1.0000   1.0000   1.0000   1.0000   1.0000   1.0000   1.0000   1.0000
     1.0000   1.0000   1.0000   1.0000   1.0000   1.0000   1.0000   1.0000
     1.0000   1.0000   1.0000   1.0000   1.0000   1.0000   1.0000   1.0000
    -0.0000  -0.0000  -0.0000  -0.0000  -0.0000  -0.0000  -0.0000  -0.0000
    -0.0000  -0.0000  -0.0000  -0.0000  -0.0000  -0.0000

          k = 0.0000 0.1111 0.0000 (  5373 PWs)   bands (ev):

   -79.3832 -79.3832 -79.3820 -79.3820 -46.2254 -46.2254 -46.2153 -46.2153
   -32.7638 -32.7638 -32.7534 -32.7534 -32.6217 -32.6217 -32.6086 -32.6086
    -7.0271  -7.0271  -5.9118  -5.9118  -5.0434  -5.0434  -4.8496  -4.8496
     4.3891   4.3891   4.6068   4.6068   6.0519   6.0519   6.1557   6.1557
     6.3352   6.3352   8.7287   8.7287   8.7575   8.7575   9.0214   9.0214
    10.0694  10.0694  10.5630  10.5630  10.7847  10.7847  11.3085  11.3085
    11.3884  11.3884  11.5554  11.5554  11.6773  11.6773  11.8156  11.8156
    12.2241  12.2241  14.8431  14.8431  14.9862  14.9862  17.6430  17.6430
    17.9792  17.9792  18.1133  18.1133  19.3371  19.3371

     occupation numbers 
     1.0000   1.0000   1.0000   1.0000   1.0000   1.0000   1.0000   1.0000
     1.0000   1.0000   1.0000   1.0000   1.0000   1.0000   1.0000   1.0000
     1.0000   1.0000   1.0000   1.0000   1.0000   1.0000   1.0000   1.0000
     1.0000   1.0000   1.0000   1.0000   1.0000   1.0000   1.0000   1.0000
     1.0000   1.0000   1.0000   1.0000   1.0000   1.0000   1.0000   1.0000
     1.0000   1.0000   1.0000   1.0000   1.0000   1.0000   1.0000   1.0000
     1.0000   1.0000   1.0000   1.0000   1.0000   1.0000   1.0000   1.0000
     1.0000   1.0000  -0.0000  -0.0000  -0.0000  -0.0000  -0.0000  -0.0000
    -0.0000  -0.0000  -0.0000  -0.0000  -0.0000  -0.0000

          k = 0.0000 0.1111 0.1781 (  5374 PWs)   bands (ev):

   -79.3828 -79.3828 -79.3817 -79.3817 -46.2267 -46.2267 -46.2174 -46.2174
   -32.7681 -32.7681 -32.7609 -32.7609 -32.6279 -32.6279 -32.6115 -32.6115
    -6.8880  -6.8880  -5.8364  -5.8364  -5.1076  -5.1076  -4.9344  -4.9344
     4.5831   4.5831   4.7540   4.7540   6.1576   6.1576   6.2277   6.2277
     6.5170   6.5170   8.1735   8.1735   8.8540   8.8540   9.1071   9.1071
     9.4008   9.4008  10.1153  10.1153  10.1822  10.1822  11.3723  11.3723
    11.4622  11.4622  11.8257  11.8257  11.9025  11.9025  12.3560  12.3560
    12.5579  12.5579  14.8352  14.8352  15.1575  15.1575  17.2367  17.2367
    17.5518  17.5518  18.5546  18.5546  19.1077  19.1077

     occupation numbers 
     1.0000   1.0000   1.0000   1.0000   1.0000   1.0000   1.0000   1.0000
     1.0000   1.0000   1.0000   1.0000   1.0000   1.0000   1.0000   1.0000
     1.0000   1.0000   1.0000   1.0000   1.0000   1.0000   1.0000   1.0000
     1.0000   1.0000   1.0000   1.0000   1.0000   1.0000   1.0000   1.0000
     1.0000   1.0000   1.0000   1.0000   1.0000   1.0000   1.0000   1.0000
     1.0000   1.0000   1.0000   1.0000   1.0000   1.0000   1.0000   1.0000
     1.0000   1.0000   1.0000   1.0000   1.0000   1.0000   1.0000   1.0000
     1.0000   1.0000  -0.0000  -0.0000  -0.0000  -0.0000  -0.0000  -0.0000
    -0.0000  -0.0000  -0.0000  -0.0000  -0.0000  -0.0000

          k = 0.0000 0.1111 0.3562 (  5383 PWs)   bands (ev):

   -79.3819 -79.3819 -79.3810 -79.3810 -46.2295 -46.2295 -46.2224 -46.2224
   -32.7859 -32.7859 -32.7775 -32.7775 -32.6376 -32.6376 -32.6177 -32.6177
    -6.5222  -6.5222  -5.6799  -5.6799  -5.2502  -5.2502  -5.1310  -5.1310
     5.0933   5.0933   5.1391   5.1391   6.4249   6.4249   6.4796   6.4796
     6.9893   6.9893   7.2117   7.2117   8.0640   8.0640   9.1367   9.1367
     9.3259   9.3259   9.4492   9.4492   9.5980   9.5980  10.7033  10.7033
    11.7366  11.7366  11.9982  11.9982  12.2392  12.2392  13.1043  13.1043
    13.2531  13.2531  14.4688  14.4688  15.7696  15.7696  16.5204  16.5204
    16.8708  16.8708  18.1634  18.1634  19.9624  19.9624

     occupation numbers 
     1.0000   1.0000   1.0000   1.0000   1.0000   1.0000   1.0000   1.0000
     1.0000   1.0000   1.0000   1.0000   1.0000   1.0000   1.0000   1.0000
     1.0000   1.0000   1.0000   1.0000   1.0000   1.0000   1.0000   1.0000
     1.0000   1.0000   1.0000   1.0000   1.0000   1.0000   1.0000   1.0000
     1.0000   1.0000   1.0000   1.0000   1.0000   1.0000   1.0000   1.0000
     1.0000   1.0000   1.0000   1.0000   1.0000   1.0000   1.0000   1.0000
     1.0000   1.0000   1.0000   1.0000   1.0000   1.0000   1.0000   1.0000
     1.0000   1.0000  -0.0000  -0.0000  -0.0000  -0.0000  -0.0000  -0.0000
    -0.0000  -0.0000  -0.0000  -0.0000  -0.0000  -0.0000

          k = 0.0000 0.1111 0.5343 (  5388 PWs)   bands (ev):

   -79.3808 -79.3808 -79.3804 -79.3804 -46.2319 -46.2319 -46.2280 -46.2280
   -32.8079 -32.8079 -32.7971 -32.7971 -32.6391 -32.6391 -32.6244 -32.6244
    -6.0759  -6.0759  -5.6204  -5.6204  -5.3686  -5.3686  -5.2994  -5.2994
     5.5064   5.5064   5.7303   5.7303   6.2794   6.2794   6.7681   6.7681
     7.0371   7.0371   7.2910   7.2910   7.7400   7.7400   8.5089   8.5089
     8.6715   8.6715   9.5917   9.5917   9.7861   9.7861   9.8669   9.8669
    11.8403  11.8403  12.1553  12.1553  12.3350  12.3350  13.4246  13.4246
    13.8221  13.8221  14.1842  14.1842  15.9049  15.9049  16.0206  16.0206
    16.6943  16.6943  17.4210  17.4210  21.4797  21.4797

     occupation numbers 
     1.0000   1.0000   1.0000   1.0000   1.0000   1.0000   1.0000   1.0000
     1.0000   1.0000   1.0000   1.0000   1.0000   1.0000   1.0000   1.0000
     1.0000   1.0000   1.0000   1.0000   1.0000   1.0000   1.0000   1.0000
     1.0000   1.0000   1.0000   1.0000   1.0000   1.0000   1.0000   1.0000
     1.0000   1.0000   1.0000   1.0000   1.0000   1.0000   1.0000   1.0000
     1.0000   1.0000   1.0000   1.0000   1.0000   1.0000   1.0000   1.0000
     1.0000   1.0000   1.0000   1.0000   1.0000   1.0000   1.0000   1.0000
     0.9929   0.9929  -0.0000  -0.0000  -0.0000  -0.0000  -0.0000  -0.0000
    -0.0000  -0.0000  -0.0000  -0.0000  -0.0000  -0.0000

          k = 0.0000 0.1111-0.7124 (  5388 PWs)   bands (ev):

   -79.3803 -79.3803 -79.3803 -79.3803 -46.2319 -46.2319 -46.2312 -46.2312
   -32.8172 -32.8172 -32.8066 -32.8066 -32.6359 -32.6359 -32.6291 -32.6291
    -5.7537  -5.7537  -5.7384  -5.7384  -5.4210  -5.4210  -5.3497  -5.3497
     5.7267   5.7267   5.7630   5.7630   6.4082   6.4082   6.4883   6.4883
     7.3377   7.3377   7.3513   7.3513   8.1360   8.1360   8.2672   8.2672
     8.6723   8.6723   8.7126   8.7126   9.8616   9.8616   9.8936   9.8936
    11.8838  11.8838  11.9134  11.9134  12.8537  12.8537  13.0188  13.0188
    14.0446  14.0446  14.2717  14.2717  15.7486  15.7486  15.8576  15.8576
    16.8795  16.8795  17.0676  17.0676  22.9297  22.9466

     occupation numbers 
     1.0000   1.0000   1.0000   1.0000   1.0000   1.0000   1.0000   1.0000
     1.0000   1.0000   1.0000   1.0000   1.0000   1.0000   1.0000   1.0000
     1.0000   1.0000   1.0000   1.0000   1.0000   1.0000   1.0000   1.0000
     1.0000   1.0000   1.0000   1.0000   1.0000   1.0000   1.0000   1.0000
     1.0000   1.0000   1.0000   1.0000   1.0000   1.0000   1.0000   1.0000
     1.0000   1.0000   1.0000   1.0000   1.0000   1.0000   1.0000   1.0000
     1.0000   1.0000   1.0000   1.0000   1.0000   1.0000   1.0000   1.0000
    -0.0014  -0.0014  -0.0000  -0.0000  -0.0000  -0.0000  -0.0000  -0.0000
    -0.0000  -0.0000  -0.0000  -0.0000  -0.0000  -0.0000

          k = 0.0000 0.2222 0.0000 (  5367 PWs)   bands (ev):

   -79.3831 -79.3831 -79.3821 -79.3821 -46.2245 -46.2245 -46.2163 -46.2163
   -32.7619 -32.7619 -32.7534 -32.7534 -32.6216 -32.6216 -32.6109 -32.6109
    -6.8912  -6.8912  -5.9083  -5.9083  -5.1567  -5.1567  -4.9633  -4.9633
     4.7185   4.7185   4.8638   4.8638   6.0982   6.0982   6.1839   6.1839
     6.5679   6.5679   8.3027   8.3027   8.4766   8.4766   8.7126   8.7126
     9.6232   9.6232   9.8388   9.8388  10.6285  10.6285  11.4166  11.4166
    11.6269  11.6269  11.7266  11.7266  11.9746  11.9746  12.1254  12.1254
    12.5493  12.5493  14.7014  14.7014  15.4169  15.4169  17.5104  17.5104
    17.8044  17.8044  18.6984  18.6984  19.0135  19.0135

     occupation numbers 
     1.0000   1.0000   1.0000   1.0000   1.0000   1.0000   1.0000   1.0000
     1.0000   1.0000   1.0000   1.0000   1.0000   1.0000   1.0000   1.0000
     1.0000   1.0000   1.0000   1.0000   1.0000   1.0000   1.0000   1.0000
     1.0000   1.0000   1.0000   1.0000   1.0000   1.0000   1.0000   1.0000
     1.0000   1.0000   1.0000   1.0000   1.0000   1.0000   1.0000   1.0000
     1.0000   1.0000   1.0000   1.0000   1.0000   1.0000   1.0000   1.0000
     1.0000   1.0000   1.0000   1.0000   1.0000   1.0000   1.0000   1.0000
     1.0000   1.0000  -0.0000  -0.0000  -0.0000  -0.0000  -0.0000  -0.0000
    -0.0000  -0.0000  -0.0000  -0.0000  -0.0000  -0.0000

          k = 0.0000 0.2222 0.1781 (  5368 PWs)   bands (ev):

   -79.3827 -79.3827 -79.3818 -79.3818 -46.2258 -46.2258 -46.2182 -46.2182
   -32.7685 -32.7685 -32.7590 -32.7590 -32.6278 -32.6278 -32.6135 -32.6135
    -6.7580  -6.7580  -5.8233  -5.8233  -5.2203  -5.2203  -5.0388  -5.0388
     4.8810   4.8810   5.0095   5.0095   6.1825   6.1825   6.2391   6.2391
     6.7749   6.7749   8.0424   8.0424   8.4069   8.4069   8.6634   8.6634
     8.9243   8.9243   9.9106   9.9106  10.2650  10.2650  11.2434  11.2434
    11.6250  11.6250  12.0823  12.0823  12.1219  12.1219  12.4359  12.4359
    12.8060  12.8060  14.5861  14.5861  15.6411  15.6411  17.0354  17.0354
    17.3693  17.3693  18.8261  18.8261  19.2017  19.2017

     occupation numbers 
     1.0000   1.0000   1.0000   1.0000   1.0000   1.0000   1.0000   1.0000
     1.0000   1.0000   1.0000   1.0000   1.0000   1.0000   1.0000   1.0000
     1.0000   1.0000   1.0000   1.0000   1.0000   1.0000   1.0000   1.0000
     1.0000   1.0000   1.0000   1.0000   1.0000   1.0000   1.0000   1.0000
     1.0000   1.0000   1.0000   1.0000   1.0000   1.0000   1.0000   1.0000
     1.0000   1.0000   1.0000   1.0000   1.0000   1.0000   1.0000   1.0000
     1.0000   1.0000   1.0000   1.0000   1.0000   1.0000   1.0000   1.0000
     1.0000   1.0000  -0.0000  -0.0000  -0.0000  -0.0000  -0.0000  -0.0000
    -0.0000  -0.0000  -0.0000  -0.0000  -0.0000  -0.0000

          k = 0.0000 0.2222 0.3562 (  5383 PWs)   bands (ev):

   -79.3818 -79.3818 -79.3811 -79.3811 -46.2289 -46.2289 -46.2230 -46.2230
   -32.7890 -32.7890 -32.7737 -32.7737 -32.6375 -32.6375 -32.6188 -32.6188
    -6.4146  -6.4146  -5.6489  -5.6489  -5.3544  -5.3544  -5.2058  -5.2058
     5.2868   5.2868   5.3710   5.3710   6.3952   6.3952   6.4932   6.4932
     7.0336   7.0336   7.3758   7.3758   7.6257   7.6257   8.7727   8.7727
     9.1219   9.1219   9.4827   9.4827   9.6531   9.6531  10.9713  10.9713
    11.4350  11.4350  12.2463  12.2463  12.4109  12.4109  12.9363  12.9363
    13.3731  13.3731  14.3230  14.3230  15.9950  15.9950  16.2220  16.2220
    16.8268  16.8268  18.3566  18.3566  20.3119  20.3119

     occupation numbers 
     1.0000   1.0000   1.0000   1.0000   1.0000   1.0000   1.0000   1.0000
     1.0000   1.0000   1.0000   1.0000   1.0000   1.0000   1.0000   1.0000
     1.0000   1.0000   1.0000   1.0000   1.0000   1.0000   1.0000   1.0000
     1.0000   1.0000   1.0000   1.0000   1.0000   1.0000   1.0000   1.0000
     1.0000   1.0000   1.0000   1.0000   1.0000   1.0000   1.0000   1.0000
     1.0000   1.0000   1.0000   1.0000   1.0000   1.0000   1.0000   1.0000
     1.0000   1.0000   1.0000   1.0000   1.0000   1.0000   1.0000   1.0000
     1.0000   1.0000  -0.0000  -0.0000  -0.0000  -0.0000  -0.0000  -0.0000
    -0.0000  -0.0000  -0.0000  -0.0000  -0.0000  -0.0000

          k = 0.0000 0.2222 0.5343 (  5373 PWs)   bands (ev):

   -79.3808 -79.3808 -79.3804 -79.3804 -46.2316 -46.2316 -46.2283 -46.2283
   -32.8121 -32.8121 -32.7929 -32.7929 -32.6400 -32.6400 -32.6236 -32.6236
    -6.0228  -6.0228  -5.6434  -5.6434  -5.4051  -5.4051  -5.2973  -5.2973
     5.6239   5.6239   5.7919   5.7919   6.0609   6.0609   6.5459   6.5459
     7.1762   7.1762   7.2835   7.2835   8.0161   8.0161   8.5595   8.5595
     8.8411   8.8411   9.4115   9.4115   9.6231   9.6231  10.1287  10.1287
    11.7966  11.7966  12.0996  12.0996  12.2207  12.2207  13.0380  13.0380
    13.8826  13.8826  14.2772  14.2772  15.5612  15.5612  15.7389  15.7389
    17.1133  17.1133  17.8930  17.8930  21.6738  21.6738

     occupation numbers 
     1.0000   1.0000   1.0000   1.0000   1.0000   1.0000   1.0000   1.0000
     1.0000   1.0000   1.0000   1.0000   1.0000   1.0000   1.0000   1.0000
     1.0000   1.0000   1.0000   1.0000   1.0000   1.0000   1.0000   1.0000
     1.0000   1.0000   1.0000   1.0000   1.0000   1.0000   1.0000   1.0000
     1.0000   1.0000   1.0000   1.0000   1.0000   1.0000   1.0000   1.0000
     1.0000   1.0000   1.0000   1.0000   1.0000   1.0000   1.0000   1.0000
     1.0000   1.0000   1.0000   1.0000   1.0000   1.0000   1.0000   1.0000
     0.4349   0.4349  -0.0000  -0.0000  -0.0000  -0.0000  -0.0000  -0.0000
    -0.0000  -0.0000  -0.0000  -0.0000  -0.0000  -0.0000

          k = 0.0000 0.2222-0.7124 (  5368 PWs)   bands (ev):

   -79.3803 -79.3803 -79.3803 -79.3803 -46.2322 -46.2322 -46.2310 -46.2310
   -32.8220 -32.8220 -32.8021 -32.8021 -32.6389 -32.6389 -32.6260 -32.6260
    -5.7834  -5.7834  -5.7682  -5.7682  -5.4099  -5.4099  -5.2896  -5.2896
     5.6838   5.6838   5.7698   5.7698   6.1302   6.1302   6.2527   6.2527
     7.5665   7.5665   7.6656   7.6656   8.1044   8.1044   8.3273   8.3273
     9.0463   9.0463   9.1084   9.1084   9.6679   9.6679   9.7034   9.7034
    11.8843  11.8843  11.8862  11.8862  12.4249  12.4249  12.6986  12.6986
    14.0716  14.0716  14.4002  14.4002  15.4036  15.4036  15.4771  15.4771
    17.4210  17.4210  17.6228  17.6228  22.9592  22.9632

     occupation numbers 
     1.0000   1.0000   1.0000   1.0000   1.0000   1.0000   1.0000   1.0000
     1.0000   1.0000   1.0000   1.0000   1.0000   1.0000   1.0000   1.0000
     1.0000   1.0000   1.0000   1.0000   1.0000   1.0000   1.0000   1.0000
     1.0000   1.0000   1.0000   1.0000   1.0000   1.0000   1.0000   1.0000
     1.0000   1.0000   1.0000   1.0000   1.0000   1.0000   1.0000   1.0000
     1.0000   1.0000   1.0000   1.0000   1.0000   1.0000   1.0000   1.0000
     1.0000   1.0000   1.0000   1.0000   1.0000   1.0000   1.0000   1.0000
    -0.0002  -0.0002  -0.0000  -0.0000  -0.0000  -0.0000  -0.0000  -0.0000
    -0.0000  -0.0000  -0.0000  -0.0000  -0.0000  -0.0000

          k = 0.0000 0.3333 0.0000 (  5372 PWs)   bands (ev):

   -79.3829 -79.3829 -79.3823 -79.3823 -46.2231 -46.2231 -46.2177 -46.2177
   -32.7593 -32.7593 -32.7538 -32.7538 -32.6210 -32.6210 -32.6141 -32.6141
    -6.6791  -6.6791  -5.9660  -5.9660  -5.2772  -5.2772  -5.0940  -5.0940
     5.1640   5.1640   5.2433   5.2433   6.1589   6.1589   6.2168   6.2168
     6.9469   6.9469   7.7713   7.7713   7.9153   7.9153   8.6257   8.6257
     9.0215   9.0215   9.2198   9.2198  10.6171  10.6171  11.1873  11.1873
    11.8998  11.8998  12.0142  12.0142  12.2296  12.2296  12.4114  12.4114
    12.9461  12.9461  14.3187  14.3187  16.1657  16.1657  17.3614  17.3614
    17.5886  17.5886  18.4855  18.4855  19.5076  19.5076

     occupation numbers 
     1.0000   1.0000   1.0000   1.0000   1.0000   1.0000   1.0000   1.0000
     1.0000   1.0000   1.0000   1.0000   1.0000   1.0000   1.0000   1.0000
     1.0000   1.0000   1.0000   1.0000   1.0000   1.0000   1.0000   1.0000
     1.0000   1.0000   1.0000   1.0000   1.0000   1.0000   1.0000   1.0000
     1.0000   1.0000   1.0000   1.0000   1.0000   1.0000   1.0000   1.0000
     1.0000   1.0000   1.0000   1.0000   1.0000   1.0000   1.0000   1.0000
     1.0000   1.0000   1.0000   1.0000   1.0000   1.0000   1.0000   1.0000
     1.0000   1.0000  -0.0000  -0.0000  -0.0000  -0.0000  -0.0000  -0.0000
    -0.0000  -0.0000  -0.0000  -0.0000  -0.0000  -0.0000

          k = 0.0000 0.3333 0.1781 (  5385 PWs)   bands (ev):

   -79.3825 -79.3825 -79.3819 -79.3819 -46.2245 -46.2245 -46.2195 -46.2195
   -32.7687 -32.7687 -32.7570 -32.7570 -32.6275 -32.6275 -32.6160 -32.6160
    -6.5550  -6.5550  -5.8649  -5.8649  -5.3440  -5.3440  -5.1587  -5.1587
     5.2934   5.2934   5.3949   5.3949   6.2072   6.2072   6.2561   6.2561
     7.1066   7.1066   7.9126   7.9126   7.9988   7.9988   8.1618   8.1618
     8.3426   8.3426   9.3967   9.3967  10.4979  10.4979  11.0874  11.0874
    11.8659  11.8659  12.1160  12.1160  12.4237  12.4237  12.6561  12.6561
    13.1047  13.1047  14.2330  14.2330  16.2562  16.2562  16.8487  16.8487
    17.1860  17.1860  18.4314  18.4314  19.9649  19.9649

     occupation numbers 
     1.0000   1.0000   1.0000   1.0000   1.0000   1.0000   1.0000   1.0000
     1.0000   1.0000   1.0000   1.0000   1.0000   1.0000   1.0000   1.0000
     1.0000   1.0000   1.0000   1.0000   1.0000   1.0000   1.0000   1.0000
     1.0000   1.0000   1.0000   1.0000   1.0000   1.0000   1.0000   1.0000
     1.0000   1.0000   1.0000   1.0000   1.0000   1.0000   1.0000   1.0000
     1.0000   1.0000   1.0000   1.0000   1.0000   1.0000   1.0000   1.0000
     1.0000   1.0000   1.0000   1.0000   1.0000   1.0000   1.0000   1.0000
     1.0000   1.0000  -0.0000  -0.0000  -0.0000  -0.0000  -0.0000  -0.0000
    -0.0000  -0.0000  -0.0000  -0.0000  -0.0000  -0.0000

          k = 0.0000 0.3333 0.3562 (  5364 PWs)   bands (ev):

   -79.3817 -79.3817 -79.3812 -79.3812 -46.2280 -46.2280 -46.2240 -46.2240
   -32.7912 -32.7912 -32.7707 -32.7707 -32.6372 -32.6372 -32.6201 -32.6201
    -6.2463  -6.2463  -5.6370  -5.6370  -5.4943  -5.4943  -5.2913  -5.2913
     5.5856   5.5856   5.6954   5.6954   6.3965   6.3965   6.5310   6.5310
     6.8774   6.8774   7.1651   7.1651   7.8112   7.8112   8.3561   8.3561
     8.6626   8.6626   9.3637   9.3637   9.9749   9.9749  10.8711  10.8711
    11.5400  11.5400  12.3802  12.3802  12.5322  12.5322  12.8579  12.8579
    13.5003  13.5003  14.1440  14.1440  15.8840  15.8840  16.0656  16.0656
    17.1038  17.1038  18.3137  18.3137  20.9060  20.9060

     occupation numbers 
     1.0000   1.0000   1.0000   1.0000   1.0000   1.0000   1.0000   1.0000
     1.0000   1.0000   1.0000   1.0000   1.0000   1.0000   1.0000   1.0000
     1.0000   1.0000   1.0000   1.0000   1.0000   1.0000   1.0000   1.0000
     1.0000   1.0000   1.0000   1.0000   1.0000   1.0000   1.0000   1.0000
     1.0000   1.0000   1.0000   1.0000   1.0000   1.0000   1.0000   1.0000
     1.0000   1.0000   1.0000   1.0000   1.0000   1.0000   1.0000   1.0000
     1.0000   1.0000   1.0000   1.0000   1.0000   1.0000   1.0000   1.0000
     1.0000   1.0000  -0.0000  -0.0000  -0.0000  -0.0000  -0.0000  -0.0000
    -0.0000  -0.0000  -0.0000  -0.0000  -0.0000  -0.0000

          k = 0.0000 0.3333 0.5343 (  5365 PWs)   bands (ev):

   -79.3807 -79.3807 -79.3805 -79.3805 -46.2312 -46.2312 -46.2287 -46.2287
   -32.8153 -32.8153 -32.7897 -32.7897 -32.6410 -32.6410 -32.6229 -32.6229
    -5.9439  -5.9439  -5.6895  -5.6895  -5.4381  -5.4381  -5.3020  -5.3020
     5.7220   5.7220   5.8244   5.8244   6.0153   6.0153   6.3298   6.3298
     7.1242   7.1242   7.4787   7.4787   8.0936   8.0936   8.7315   8.7315
     9.0076   9.0076   9.0921   9.0921   9.6178   9.6178  10.5684  10.5684
    11.3778  11.3778  12.1166  12.1166  12.1873  12.1873  12.6613  12.6613
    13.9451  13.9451  14.3370  14.3370  15.2831  15.2831  15.4881  15.4881
    17.5928  17.5928  18.2038  18.2038  22.0112  22.0112

     occupation numbers 
     1.0000   1.0000   1.0000   1.0000   1.0000   1.0000   1.0000   1.0000
     1.0000   1.0000   1.0000   1.0000   1.0000   1.0000   1.0000   1.0000
     1.0000   1.0000   1.0000   1.0000   1.0000   1.0000   1.0000   1.0000
     1.0000   1.0000   1.0000   1.0000   1.0000   1.0000   1.0000   1.0000
     1.0000   1.0000   1.0000   1.0000   1.0000   1.0000   1.0000   1.0000
     1.0000   1.0000   1.0000   1.0000   1.0000   1.0000   1.0000   1.0000
     1.0000   1.0000   1.0000   1.0000   1.0000   1.0000   1.0000   1.0000
    -0.0247  -0.0247  -0.0000  -0.0000  -0.0000  -0.0000  -0.0000  -0.0000
    -0.0000  -0.0000  -0.0000  -0.0000  -0.0000  -0.0000

          k = 0.0000 0.3333-0.7124 (  5356 PWs)   bands (ev):

   -79.3803 -79.3803 -79.3803 -79.3803 -46.2324 -46.2324 -46.2308 -46.2308
   -32.8256 -32.8256 -32.7988 -32.7988 -32.6411 -32.6411 -32.6237 -32.6237
    -5.8090  -5.8090  -5.8020  -5.8020  -5.3875  -5.3875  -5.2392  -5.2392
     5.5588   5.5588   5.6255   5.6255   6.1270   6.1270   6.1964   6.1964
     7.6003   7.6003   7.9128   7.9128   8.2241   8.2241   8.4012   8.4012
     9.2191   9.2191   9.2318   9.2318   9.8090   9.8090   9.8449   9.8449
    11.6852  11.6852  11.8266  11.8266  11.9254  11.9254  12.3689  12.3689
    14.1240  14.1240  14.4755  14.4755  15.1605  15.1605  15.2102  15.2102
    17.9029  17.9029  18.0905  18.0905  23.0316  23.0324

     occupation numbers 
     1.0000   1.0000   1.0000   1.0000   1.0000   1.0000   1.0000   1.0000
     1.0000   1.0000   1.0000   1.0000   1.0000   1.0000   1.0000   1.0000
     1.0000   1.0000   1.0000   1.0000   1.0000   1.0000   1.0000   1.0000
     1.0000   1.0000   1.0000   1.0000   1.0000   1.0000   1.0000   1.0000
     1.0000   1.0000   1.0000   1.0000   1.0000   1.0000   1.0000   1.0000
     1.0000   1.0000   1.0000   1.0000   1.0000   1.0000   1.0000   1.0000
     1.0000   1.0000   1.0000   1.0000   1.0000   1.0000   1.0000   1.0000
    -0.0000  -0.0000  -0.0000  -0.0000  -0.0000  -0.0000  -0.0000  -0.0000
    -0.0000  -0.0000  -0.0000  -0.0000  -0.0000  -0.0000

          k = 0.0000 0.4444 0.0000 (  5372 PWs)   bands (ev):

   -79.3827 -79.3827 -79.3825 -79.3825 -46.2213 -46.2213 -46.2195 -46.2195
   -32.7568 -32.7568 -32.7549 -32.7549 -32.6196 -32.6196 -32.6172 -32.6172
    -6.4166  -6.4166  -6.1513  -6.1513  -5.2947  -5.2947  -5.2151  -5.2151
     5.5487   5.5487   5.5883   5.5883   6.2219   6.2219   6.2403   6.2403
     7.2479   7.2479   7.3986   7.3986   7.6103   7.6103   8.2369   8.2369
     8.6908   8.6908   8.8882   8.8882  10.7339  10.7339  10.9399  10.9399
    12.0769  12.0769  12.1351  12.1351  12.4371  12.4371  12.5275  12.5275
    13.4013  13.4013  13.8712  13.8712  16.9515  16.9515  17.2772  17.2772
    17.4361  17.4361  17.8275  17.8275  20.3634  20.3634

     occupation numbers 
     1.0000   1.0000   1.0000   1.0000   1.0000   1.0000   1.0000   1.0000
     1.0000   1.0000   1.0000   1.0000   1.0000   1.0000   1.0000   1.0000
     1.0000   1.0000   1.0000   1.0000   1.0000   1.0000   1.0000   1.0000
     1.0000   1.0000   1.0000   1.0000   1.0000   1.0000   1.0000   1.0000
     1.0000   1.0000   1.0000   1.0000   1.0000   1.0000   1.0000   1.0000
     1.0000   1.0000   1.0000   1.0000   1.0000   1.0000   1.0000   1.0000
     1.0000   1.0000   1.0000   1.0000   1.0000   1.0000   1.0000   1.0000
     1.0000   1.0000   0.5752   0.5752  -0.0000  -0.0000  -0.0000  -0.0000
    -0.0000  -0.0000  -0.0000  -0.0000  -0.0000  -0.0000

          k = 0.0000 0.4444 0.1781 (  5369 PWs)   bands (ev):

   -79.3823 -79.3823 -79.3821 -79.3821 -46.2230 -46.2230 -46.2211 -46.2211
   -32.7687 -32.7687 -32.7558 -32.7558 -32.6270 -32.6270 -32.6178 -32.6178
    -6.3026  -6.3026  -6.0425  -6.0425  -5.3581  -5.3581  -5.2717  -5.2717
     5.6823   5.6823   5.7870   5.7870   6.1716   6.1716   6.2152   6.2152
     7.4210   7.4210   7.5859   7.5859   7.6924   7.6924   7.8433   7.8433
     8.2947   8.2947   8.8050   8.8050  10.7276  10.7276  10.9254  10.9254
    12.0173  12.0173  12.0946  12.0946  12.6569  12.6569  12.8106  12.8106
    13.4076  13.4076  13.8569  13.8569  16.6002  16.6002  16.8147  16.8147
    17.3046  17.3046  17.8808  17.8808  20.7904  20.7904

     occupation numbers 
     1.0000   1.0000   1.0000   1.0000   1.0000   1.0000   1.0000   1.0000
     1.0000   1.0000   1.0000   1.0000   1.0000   1.0000   1.0000   1.0000
     1.0000   1.0000   1.0000   1.0000   1.0000   1.0000   1.0000   1.0000
     1.0000   1.0000   1.0000   1.0000   1.0000   1.0000   1.0000   1.0000
     1.0000   1.0000   1.0000   1.0000   1.0000   1.0000   1.0000   1.0000
     1.0000   1.0000   1.0000   1.0000   1.0000   1.0000   1.0000   1.0000
     1.0000   1.0000   1.0000   1.0000   1.0000   1.0000   1.0000   1.0000
     1.0000   1.0000   0.7420   0.7420  -0.0000  -0.0000  -0.0000  -0.0000
    -0.0000  -0.0000  -0.0000  -0.0000  -0.0000  -0.0000

          k = 0.0000 0.4444 0.3562 (  5386 PWs)   bands (ev):

   -79.3815 -79.3815 -79.3813 -79.3813 -46.2270 -46.2270 -46.2251 -46.2251
   -32.7923 -32.7923 -32.7691 -32.7691 -32.6370 -32.6370 -32.6210 -32.6210
    -6.0351  -6.0351  -5.8046  -5.8046  -5.4858  -5.4858  -5.3725  -5.3725
     5.9006   5.9006   5.9895   5.9895   6.4328   6.4328   6.5557   6.5557
     6.6932   6.6932   6.8034   6.8034   8.0376   8.0376   8.1765   8.1765
     8.5394   8.5394   8.9970   8.9970  10.2937  10.2937  10.5776  10.5776
    11.8928  11.8928  12.2028  12.2028  12.6355  12.6355  12.9041  12.9041
    13.5740  13.5740  14.0304  14.0304  15.7669  15.7669  15.9119  15.9119
    17.5828  17.5828  18.0336  18.0336  21.6212  21.6212

     occupation numbers 
     1.0000   1.0000   1.0000   1.0000   1.0000   1.0000   1.0000   1.0000
     1.0000   1.0000   1.0000   1.0000   1.0000   1.0000   1.0000   1.0000
     1.0000   1.0000   1.0000   1.0000   1.0000   1.0000   1.0000   1.0000
     1.0000   1.0000   1.0000   1.0000   1.0000   1.0000   1.0000   1.0000
     1.0000   1.0000   1.0000   1.0000   1.0000   1.0000   1.0000   1.0000
     1.0000   1.0000   1.0000   1.0000   1.0000   1.0000   1.0000   1.0000
     1.0000   1.0000   1.0000   1.0000   1.0000   1.0000   1.0000   1.0000
     1.0000   1.0000  -0.0033  -0.0033  -0.0000  -0.0000  -0.0000  -0.0000
    -0.0000  -0.0000  -0.0000  -0.0000  -0.0000  -0.0000

          k = 0.0000 0.4444 0.5343 (  5374 PWs)   bands (ev):

   -79.3806 -79.3806 -79.3806 -79.3806 -46.2309 -46.2309 -46.2290 -46.2290
   -32.8170 -32.8170 -32.7881 -32.7881 -32.6416 -32.6416 -32.6224 -32.6224
    -5.8518  -5.8518  -5.7619  -5.7619  -5.4559  -5.4559  -5.3072  -5.3072
     5.7433   5.7433   5.7989   5.7989   6.1182   6.1182   6.2105   6.2105
     7.1379   7.1379   7.4878   7.4878   8.2573   8.2573   8.6109   8.6109
     8.9296   8.9296   9.0626   9.0626  10.0295  10.0295  10.5712  10.5712
    11.3195  11.3195  11.7834  11.7834  12.2117  12.2117  12.5300  12.5300
    13.9807  13.9807  14.3703  14.3703  15.1881  15.1881  15.2794  15.2794
    17.9893  17.9893  18.2590  18.2590  22.4850  22.4851

     occupation numbers 
     1.0000   1.0000   1.0000   1.0000   1.0000   1.0000   1.0000   1.0000
     1.0000   1.0000   1.0000   1.0000   1.0000   1.0000   1.0000   1.0000
     1.0000   1.0000   1.0000   1.0000   1.0000   1.0000   1.0000   1.0000
     1.0000   1.0000   1.0000   1.0000   1.0000   1.0000   1.0000   1.0000
     1.0000   1.0000   1.0000   1.0000   1.0000   1.0000   1.0000   1.0000
     1.0000   1.0000   1.0000   1.0000   1.0000   1.0000   1.0000   1.0000
     1.0000   1.0000   1.0000   1.0000   1.0000   1.0000   1.0000   1.0000
    -0.0268  -0.0268  -0.0000  -0.0000  -0.0000  -0.0000  -0.0000  -0.0000
    -0.0000  -0.0000  -0.0000  -0.0000  -0.0000  -0.0000

          k = 0.0000 0.4444-0.7124 (  5352 PWs)   bands (ev):

   -79.3803 -79.3803 -79.3803 -79.3803 -46.2326 -46.2326 -46.2306 -46.2306
   -32.8275 -32.8275 -32.7970 -32.7970 -32.6423 -32.6423 -32.6225 -32.6225
    -5.8233  -5.8233  -5.8228  -5.8228  -5.3719  -5.3719  -5.2109  -5.2109
     5.4583   5.4583   5.5037   5.5037   6.2016   6.2016   6.2124   6.2124
     7.5444   7.5444   8.0566   8.0566   8.4327   8.4327   8.5607   8.5607
     8.9299   8.9299   8.9900   8.9900  10.4153  10.4153  10.4422  10.4422
    11.2178  11.2178  11.2308  11.2308  11.9028  11.9028  12.2421  12.2421
    14.1572  14.1572  14.5029  14.5029  15.0355  15.0355  15.0811  15.0811
    18.1898  18.1898  18.3616  18.3616  23.1182  23.1205

     occupation numbers 
     1.0000   1.0000   1.0000   1.0000   1.0000   1.0000   1.0000   1.0000
     1.0000   1.0000   1.0000   1.0000   1.0000   1.0000   1.0000   1.0000
     1.0000   1.0000   1.0000   1.0000   1.0000   1.0000   1.0000   1.0000
     1.0000   1.0000   1.0000   1.0000   1.0000   1.0000   1.0000   1.0000
     1.0000   1.0000   1.0000   1.0000   1.0000   1.0000   1.0000   1.0000
     1.0000   1.0000   1.0000   1.0000   1.0000   1.0000   1.0000   1.0000
     1.0000   1.0000   1.0000   1.0000   1.0000   1.0000   1.0000   1.0000
    -0.0000  -0.0000  -0.0000  -0.0000  -0.0000  -0.0000  -0.0000  -0.0000
    -0.0000  -0.0000  -0.0000  -0.0000  -0.0000  -0.0000

          k = 0.1111 0.1111 0.0000 (  5365 PWs)   bands (ev):

   -79.3832 -79.3832 -79.3820 -79.3820 -46.2251 -46.2251 -46.2156 -46.2156
   -32.7632 -32.7632 -32.7534 -32.7534 -32.6217 -32.6217 -32.6093 -32.6093
    -6.9841  -6.9841  -5.9077  -5.9077  -5.0955  -5.0955  -4.8724  -4.8724
     4.3744   4.3744   4.8134   4.8134   6.0569   6.0569   6.1728   6.1728
     6.4114   6.4114   8.3945   8.3945   8.7054   8.7054   9.0551   9.0551
     9.9714   9.9714  10.4734  10.4734  10.6049  10.6049  11.1473  11.1473
    11.5175  11.5175  11.5640  11.5640  11.8324  11.8324  11.9564  11.9564
    12.3812  12.3812  14.8986  14.8986  14.9856  14.9856  17.5737  17.5737
    17.9529  17.9529  18.3438  18.3438  19.2216  19.2216

     occupation numbers 
     1.0000   1.0000   1.0000   1.0000   1.0000   1.0000   1.0000   1.0000
     1.0000   1.0000   1.0000   1.0000   1.0000   1.0000   1.0000   1.0000
     1.0000   1.0000   1.0000   1.0000   1.0000   1.0000   1.0000   1.0000
     1.0000   1.0000   1.0000   1.0000   1.0000   1.0000   1.0000   1.0000
     1.0000   1.0000   1.0000   1.0000   1.0000   1.0000   1.0000   1.0000
     1.0000   1.0000   1.0000   1.0000   1.0000   1.0000   1.0000   1.0000
     1.0000   1.0000   1.0000   1.0000   1.0000   1.0000   1.0000   1.0000
     1.0000   1.0000  -0.0000  -0.0000  -0.0000  -0.0000  -0.0000  -0.0000
    -0.0000  -0.0000  -0.0000  -0.0000  -0.0000  -0.0000

          k = 0.1111 0.1111 0.1781 (  5364 PWs)   bands (ev):

   -79.3828 -79.3828 -79.3817 -79.3817 -46.2264 -46.2264 -46.2176 -46.2176
   -32.7683 -32.7683 -32.7603 -32.7603 -32.6279 -32.6279 -32.6121 -32.6121
    -6.8468  -6.8468  -5.8293  -5.8293  -5.1586  -5.1586  -4.9551  -4.9551
     4.5563   4.5563   4.9611   4.9611   6.1298   6.1298   6.2635   6.2635
     6.6057   6.6057   8.0795   8.0795   8.6022   8.6022   9.0969   9.0969
     9.2432   9.2432  10.0861  10.0861  10.2916  10.2916  11.2800  11.2800
    11.4582  11.4582  11.7368  11.7368  12.0932  12.0932  12.3961  12.3961
    12.6891  12.6891  14.7629  14.7629  15.2791  15.2791  17.1152  17.1152
    17.5472  17.5472  18.7646  18.7646  19.0454  19.0454

     occupation numbers 
     1.0000   1.0000   1.0000   1.0000   1.0000   1.0000   1.0000   1.0000
     1.0000   1.0000   1.0000   1.0000   1.0000   1.0000   1.0000   1.0000
     1.0000   1.0000   1.0000   1.0000   1.0000   1.0000   1.0000   1.0000
     1.0000   1.0000   1.0000   1.0000   1.0000   1.0000   1.0000   1.0000
     1.0000   1.0000   1.0000   1.0000   1.0000   1.0000   1.0000   1.0000
     1.0000   1.0000   1.0000   1.0000   1.0000   1.0000   1.0000   1.0000
     1.0000   1.0000   1.0000   1.0000   1.0000   1.0000   1.0000   1.0000
     1.0000   1.0000  -0.0000  -0.0000  -0.0000  -0.0000  -0.0000  -0.0000
    -0.0000  -0.0000  -0.0000  -0.0000  -0.0000  -0.0000

          k = 0.1111 0.1111 0.3562 (  5381 PWs)   bands (ev):

   -79.3818 -79.3818 -79.3810 -79.3810 -46.2293 -46.2293 -46.2226 -46.2226
   -32.7870 -32.7870 -32.7761 -32.7761 -32.6375 -32.6375 -32.6181 -32.6181
    -6.4879  -6.4879  -5.6684  -5.6684  -5.2934  -5.2934  -5.1463  -5.1463
     5.0347   5.0347   5.3341   5.3341   6.3429   6.3429   6.5577   6.5577
     7.0583   7.0583   7.1675   7.1675   7.9811   7.9811   8.9175   8.9175
     9.1786   9.1786   9.5932   9.5932   9.6760   9.6760  10.8052  10.8052
    11.6138  11.6138  11.9869  11.9869  12.3632  12.3632  13.0253  13.0253
    13.3243  13.3243  14.4229  14.4229  15.8459  15.8459  16.3776  16.3776
    16.8765  16.8765  18.2472  18.2472  20.0780  20.0780

     occupation numbers 
     1.0000   1.0000   1.0000   1.0000   1.0000   1.0000   1.0000   1.0000
     1.0000   1.0000   1.0000   1.0000   1.0000   1.0000   1.0000   1.0000
     1.0000   1.0000   1.0000   1.0000   1.0000   1.0000   1.0000   1.0000
     1.0000   1.0000   1.0000   1.0000   1.0000   1.0000   1.0000   1.0000
     1.0000   1.0000   1.0000   1.0000   1.0000   1.0000   1.0000   1.0000
     1.0000   1.0000   1.0000   1.0000   1.0000   1.0000   1.0000   1.0000
     1.0000   1.0000   1.0000   1.0000   1.0000   1.0000   1.0000   1.0000
     1.0000   1.0000  -0.0000  -0.0000  -0.0000  -0.0000  -0.0000  -0.0000
    -0.0000  -0.0000  -0.0000  -0.0000  -0.0000  -0.0000

          k = 0.1111 0.1111 0.5343 (  5369 PWs)   bands (ev):

   -79.3808 -79.3808 -79.3804 -79.3804 -46.2318 -46.2318 -46.2281 -46.2281
   -32.8094 -32.8094 -32.7955 -32.7955 -32.6393 -32.6393 -32.6242 -32.6242
    -6.0577  -6.0577  -5.6264  -5.6264  -5.3825  -5.3825  -5.2986  -5.2986
     5.5325   5.5325   5.7666   5.7666   6.1840   6.1840   6.6823   6.6823
     7.0478   7.0478   7.3400   7.3400   7.8394   7.8394   8.5194   8.5194
     8.7346   8.7346   9.5077   9.5077   9.7410   9.7410   9.9785   9.9785
    11.8479  11.8479  12.1466  12.1466  12.2629  12.2629  13.4055  13.4055
    13.6724  13.6724  14.2809  14.2809  15.6194  15.6194  16.2159  16.2159
    16.6539  16.6539  17.6349  17.6349  21.5427  21.5427

     occupation numbers 
     1.0000   1.0000   1.0000   1.0000   1.0000   1.0000   1.0000   1.0000
     1.0000   1.0000   1.0000   1.0000   1.0000   1.0000   1.0000   1.0000
     1.0000   1.0000   1.0000   1.0000   1.0000   1.0000   1.0000   1.0000
     1.0000   1.0000   1.0000   1.0000   1.0000   1.0000   1.0000   1.0000
     1.0000   1.0000   1.0000   1.0000   1.0000   1.0000   1.0000   1.0000
     1.0000   1.0000   1.0000   1.0000   1.0000   1.0000   1.0000   1.0000
     1.0000   1.0000   1.0000   1.0000   1.0000   1.0000   1.0000   1.0000
     1.0001   1.0001  -0.0000  -0.0000  -0.0000  -0.0000  -0.0000  -0.0000
    -0.0000  -0.0000  -0.0000  -0.0000  -0.0000  -0.0000

          k = 0.1111 0.1111-0.7124 (  5376 PWs)   bands (ev):

   -79.3803 -79.3803 -79.3803 -79.3803 -46.2320 -46.2320 -46.2311 -46.2311
   -32.8190 -32.8190 -32.8049 -32.8049 -32.6371 -32.6371 -32.6279 -32.6279
    -5.7862  -5.7862  -5.7161  -5.7161  -5.4366  -5.4366  -5.3197  -5.3197
     5.6781   5.6781   5.8314   5.8314   6.2003   6.2003   6.6248   6.6248
     6.8928   6.8928   7.9119   7.9119   8.1181   8.1181   8.2832   8.2832
     8.6601   8.6601   8.9377   8.9377   9.6383   9.6383   9.9691   9.9691
    11.8804  11.8804  11.9146  11.9146  12.6436  12.6436  13.0629  13.0629
    13.8901  13.8901  14.4035  14.4035  15.3988  15.3988  16.1157  16.1157
    16.7064  16.7064  17.4474  17.4474  22.9134  22.9189

     occupation numbers 
     1.0000   1.0000   1.0000   1.0000   1.0000   1.0000   1.0000   1.0000
     1.0000   1.0000   1.0000   1.0000   1.0000   1.0000   1.0000   1.0000
     1.0000   1.0000   1.0000   1.0000   1.0000   1.0000   1.0000   1.0000
     1.0000   1.0000   1.0000   1.0000   1.0000   1.0000   1.0000   1.0000
     1.0000   1.0000   1.0000   1.0000   1.0000   1.0000   1.0000   1.0000
     1.0000   1.0000   1.0000   1.0000   1.0000   1.0000   1.0000   1.0000
     1.0000   1.0000   1.0000   1.0000   1.0000   1.0000   1.0000   1.0000
     0.3436   0.3436  -0.0000  -0.0000  -0.0000  -0.0000  -0.0000  -0.0000
    -0.0000  -0.0000  -0.0000  -0.0000  -0.0000  -0.0000

          k = 0.1111 0.2222 0.0000 (  5375 PWs)   bands (ev):

   -79.3831 -79.3831 -79.3821 -79.3821 -46.2243 -46.2243 -46.2165 -46.2165
   -32.7617 -32.7617 -32.7535 -32.7535 -32.6215 -32.6215 -32.6113 -32.6113
    -6.8590  -6.8590  -5.9136  -5.9136  -5.2124  -5.2124  -4.9444  -4.9444
     4.4959   4.4959   5.2176   5.2176   6.0770   6.0770   6.2096   6.2096
     6.6392   6.6392   7.8264   7.8264   8.6156   8.6156   8.8442   8.8442
     9.6776   9.6776   9.9563   9.9563  10.4137  10.4137  11.3300  11.3300
    11.4004  11.4004  11.7370  11.7370  12.0546  12.0546  12.2762  12.2762
    12.6842  12.6842  14.6655  14.6655  15.4113  15.4113  17.4292  17.4292
    17.8508  17.8508  18.8711  18.8711  18.9554  18.9554

     occupation numbers 
     1.0000   1.0000   1.0000   1.0000   1.0000   1.0000   1.0000   1.0000
     1.0000   1.0000   1.0000   1.0000   1.0000   1.0000   1.0000   1.0000
     1.0000   1.0000   1.0000   1.0000   1.0000   1.0000   1.0000   1.0000
     1.0000   1.0000   1.0000   1.0000   1.0000   1.0000   1.0000   1.0000
     1.0000   1.0000   1.0000   1.0000   1.0000   1.0000   1.0000   1.0000
     1.0000   1.0000   1.0000   1.0000   1.0000   1.0000   1.0000   1.0000
     1.0000   1.0000   1.0000   1.0000   1.0000   1.0000   1.0000   1.0000
     1.0000   1.0000  -0.0000  -0.0000  -0.0000  -0.0000  -0.0000  -0.0000
    -0.0000  -0.0000  -0.0000  -0.0000  -0.0000  -0.0000

          k = 0.1111 0.2222 0.1781 (  5366 PWs)   bands (ev):

   -79.3827 -79.3827 -79.3818 -79.3818 -46.2256 -46.2256 -46.2185 -46.2185
   -32.7685 -32.7685 -32.7588 -32.7588 -32.6276 -32.6276 -32.6139 -32.6139
    -6.7271  -6.7271  -5.8246  -5.8246  -5.2759  -5.2759  -5.0209  -5.0209
     4.6642   4.6642   5.3535   5.3535   6.1239   6.1239   6.2821   6.2821
     6.8484   6.8484   7.9010   7.9010   8.1194   8.1194   8.7411   8.7411
     9.1388   9.1388   9.9133   9.9133  10.2796  10.2796  11.1019  11.1019
    11.5978  11.5978  11.8634  11.8634  12.2386  12.2386  12.5545  12.5545
    12.9239  12.9239  14.5439  14.5439  15.6569  15.6569  16.9129  16.9129
    17.4554  17.4554  18.7376  18.7376  19.4024  19.4024

     occupation numbers 
     1.0000   1.0000   1.0000   1.0000   1.0000   1.0000   1.0000   1.0000
     1.0000   1.0000   1.0000   1.0000   1.0000   1.0000   1.0000   1.0000
     1.0000   1.0000   1.0000   1.0000   1.0000   1.0000   1.0000   1.0000
     1.0000   1.0000   1.0000   1.0000   1.0000   1.0000   1.0000   1.0000
     1.0000   1.0000   1.0000   1.0000   1.0000   1.0000   1.0000   1.0000
     1.0000   1.0000   1.0000   1.0000   1.0000   1.0000   1.0000   1.0000
     1.0000   1.0000   1.0000   1.0000   1.0000   1.0000   1.0000   1.0000
     1.0000   1.0000  -0.0000  -0.0000  -0.0000  -0.0000  -0.0000  -0.0000
    -0.0000  -0.0000  -0.0000  -0.0000  -0.0000  -0.0000

          k = 0.1111 0.2222 0.3562 (  5382 PWs)   bands (ev):

   -79.3818 -79.3818 -79.3811 -79.3811 -46.2288 -46.2288 -46.2232 -46.2232
   -32.7892 -32.7892 -32.7735 -32.7735 -32.6372 -32.6372 -32.6192 -32.6192
    -6.3881  -6.3881  -5.6391  -5.6391  -5.4057  -5.4057  -5.1945  -5.1945
     5.1061   5.1061   5.6451   5.6451   6.2897   6.2897   6.5949   6.5949
     6.9224   6.9224   7.4063   7.4063   7.7365   7.7365   8.4909   8.4909
     9.2194   9.2194   9.4215   9.4215   9.8340   9.8340  11.0199  11.0199
    11.3682  11.3682  12.0950  12.0950  12.5141  12.5141  12.9366  12.9366
    13.4178  13.4178  14.2875  14.2875  15.9047  15.9047  16.2662  16.2662
    16.8578  16.8578  18.3386  18.3386  20.4427  20.4427

[...]
     1.0000   1.0000   1.0000   1.0000   1.0000   1.0000   1.0000   1.0000
     1.0000   1.0000   1.0018   1.0018  -0.0000  -0.0000  -0.0000  -0.0000
    -0.0000  -0.0000  -0.0000  -0.0000  -0.0000  -0.0000

          k = 0.3333 0.4444 0.5343 (  5362 PWs)   bands (ev):

   -79.3806 -79.3806 -79.3806 -79.3806 -46.2305 -46.2305 -46.2295 -46.2295
   -32.8103 -32.8103 -32.7951 -32.7951 -32.6372 -32.6372 -32.6272 -32.6272
    -5.7808  -5.7808  -5.7304  -5.7304  -5.4636  -5.4636  -5.3705  -5.3705
     5.5440   5.5440   5.6158   5.6158   6.1052   6.1052   6.2558   6.2558
     6.9089   6.9089   7.1653   7.1653   8.4148   8.4148   8.5275   8.5275
     9.2843   9.2843   9.4726   9.4726  10.2071  10.2071  10.5303  10.5303
    11.8949  11.8949  12.0208  12.0208  12.2854  12.2854  12.6976  12.6976
    13.4393  13.4393  13.8834  13.8834  15.6896  15.6896  16.0387  16.0387
    17.2650  17.2650  17.6197  17.6197  22.7103  22.7104

     occupation numbers 
     1.0000   1.0000   1.0000   1.0000   1.0000   1.0000   1.0000   1.0000
     1.0000   1.0000   1.0000   1.0000   1.0000   1.0000   1.0000   1.0000
     1.0000   1.0000   1.0000   1.0000   1.0000   1.0000   1.0000   1.0000
     1.0000   1.0000   1.0000   1.0000   1.0000   1.0000   1.0000   1.0000
     1.0000   1.0000   1.0000   1.0000   1.0000   1.0000   1.0000   1.0000
     1.0000   1.0000   1.0000   1.0000   1.0000   1.0000   1.0000   1.0000
     1.0000   1.0000   1.0000   1.0000   1.0000   1.0000   1.0000   1.0000
     1.0000   1.0000   0.4242   0.4242  -0.0000  -0.0000  -0.0000  -0.0000
    -0.0000  -0.0000  -0.0000  -0.0000  -0.0000  -0.0000

          k = 0.3333 0.4444-0.7124 (  5374 PWs)   bands (ev):

   -79.3803 -79.3803 -79.3803 -79.3803 -46.2321 -46.2321 -46.2311 -46.2311
   -32.8202 -32.8202 -32.8042 -32.8042 -32.6381 -32.6381 -32.6277 -32.6277
    -5.7364  -5.7364  -5.6619  -5.6619  -5.4797  -5.4797  -5.3399  -5.3399
     5.6188   5.6188   5.8068   5.8068   5.9798   5.9798   6.2339   6.2339
     6.8094   6.8094   7.2646   7.2646   8.1979   8.1979   8.3214   8.3214
     9.5105   9.5105   9.6373   9.6373  10.4313  10.4313  10.7141  10.7141
    11.7270  11.7270  11.9196  11.9196  12.0967  12.0967  12.5345  12.5345
    13.5512  13.5512  14.0126  14.0126  15.4718  15.4718  15.8515  15.8515
    17.2913  17.2913  17.6958  17.6958  23.1022  23.1024

     occupation numbers 
     1.0000   1.0000   1.0000   1.0000   1.0000   1.0000   1.0000   1.0000
     1.0000   1.0000   1.0000   1.0000   1.0000   1.0000   1.0000   1.0000
     1.0000   1.0000   1.0000   1.0000   1.0000   1.0000   1.0000   1.0000
     1.0000   1.0000   1.0000   1.0000   1.0000   1.0000   1.0000   1.0000
     1.0000   1.0000   1.0000   1.0000   1.0000   1.0000   1.0000   1.0000
     1.0000   1.0000   1.0000   1.0000   1.0000   1.0000   1.0000   1.0000
     1.0000   1.0000   1.0000   1.0000   1.0000   1.0000   1.0000   1.0000
     1.0000   1.0000  -0.0083  -0.0083  -0.0000  -0.0000  -0.0000  -0.0000
    -0.0000  -0.0000  -0.0000  -0.0000  -0.0000  -0.0000

          k = 0.4444 0.4444 0.0000 (  5408 PWs)   bands (ev):

   -79.3826 -79.3826 -79.3826 -79.3826 -46.2206 -46.2206 -46.2203 -46.2203
   -32.7586 -32.7586 -32.7581 -32.7581 -32.6165 -32.6165 -32.6160 -32.6160
    -6.4263  -6.4263  -6.3834  -6.3834  -5.0645  -5.0645  -5.0316  -5.0316
     4.4008   4.4008   4.5010   4.5010   6.0145   6.0145   6.0310   6.0310
     8.3459   8.3459   8.6997   8.6997   8.7617   8.7617   9.1203   9.1203
     9.4947   9.4947   9.5981   9.5981  10.0871  10.0871  10.3970  10.3970
    11.1374  11.1374  11.3362  11.3362  11.7626  11.7626  11.8615  11.8615
    13.9980  13.9980  14.0715  14.0715  16.2057  16.2057  16.3802  16.3802
    17.8676  17.8676  17.9305  17.9305  22.0618  22.0618

     occupation numbers 
     1.0000   1.0000   1.0000   1.0000   1.0000   1.0000   1.0000   1.0000
     1.0000   1.0000   1.0000   1.0000   1.0000   1.0000   1.0000   1.0000
     1.0000   1.0000   1.0000   1.0000   1.0000   1.0000   1.0000   1.0000
     1.0000   1.0000   1.0000   1.0000   1.0000   1.0000   1.0000   1.0000
     1.0000   1.0000   1.0000   1.0000   1.0000   1.0000   1.0000   1.0000
     1.0000   1.0000   1.0000   1.0000   1.0000   1.0000   1.0000   1.0000
     1.0000   1.0000   1.0000   1.0000   1.0000   1.0000   1.0000   1.0000
    -0.0155  -0.0155  -0.0002  -0.0002  -0.0000  -0.0000  -0.0000  -0.0000
    -0.0000  -0.0000  -0.0000  -0.0000  -0.0000  -0.0000

          k = 0.4444 0.4444 0.1781 (  5398 PWs)   bands (ev):

   -79.3823 -79.3823 -79.3822 -79.3822 -46.2223 -46.2223 -46.2219 -46.2219
   -32.7659 -32.7659 -32.7628 -32.7628 -32.6218 -32.6218 -32.6196 -32.6196
    -6.3137  -6.3137  -6.2722  -6.2722  -5.1349  -5.1349  -5.1030  -5.1030
     4.5658   4.5658   4.6631   4.6631   6.0168   6.0168   6.0361   6.0361
     8.4949   8.4949   8.6538   8.6538   8.8426   8.8426   8.9482   8.9482
     9.1447   9.1447   9.3614   9.3614   9.7395   9.7395   9.9327   9.9327
    11.5290  11.5290  11.6872  11.6872  12.1275  12.1275  12.1894  12.1894
    13.8406  13.8406  13.9091  13.9091  16.4047  16.4047  16.5521  16.5521
    17.5115  17.5115  17.5830  17.5830  22.2646  22.2646

     occupation numbers 
     1.0000   1.0000   1.0000   1.0000   1.0000   1.0000   1.0000   1.0000
     1.0000   1.0000   1.0000   1.0000   1.0000   1.0000   1.0000   1.0000
     1.0000   1.0000   1.0000   1.0000   1.0000   1.0000   1.0000   1.0000
     1.0000   1.0000   1.0000   1.0000   1.0000   1.0000   1.0000   1.0000
     1.0000   1.0000   1.0000   1.0000   1.0000   1.0000   1.0000   1.0000
     1.0000   1.0000   1.0000   1.0000   1.0000   1.0000   1.0000   1.0000
     1.0000   1.0000   1.0000   1.0000   1.0000   1.0000   1.0000   1.0000
     0.8908   0.8908   0.1484   0.1484  -0.0000  -0.0000  -0.0000  -0.0000
    -0.0000  -0.0000  -0.0000  -0.0000  -0.0000  -0.0000

          k = 0.4444 0.4444 0.3562 (  5367 PWs)   bands (ev):

   -79.3814 -79.3814 -79.3814 -79.3814 -46.2262 -46.2262 -46.2258 -46.2258
   -32.7847 -32.7847 -32.7790 -32.7790 -32.6302 -32.6302 -32.6264 -32.6264
    -6.0338  -6.0338  -5.9991  -5.9991  -5.2985  -5.2985  -5.2681  -5.2681
     5.0011   5.0011   5.0818   5.0818   6.0698   6.0698   6.0979   6.0979
     7.7128   7.7128   7.8336   7.8336   8.7588   8.7588   8.9579   8.9579
     9.1689   9.1689   9.2850   9.2850   9.7622   9.7622   9.9595   9.9595
    11.9015  11.9015  12.0075  12.0075  12.6052  12.6052  12.7130  12.7130
    13.4514  13.4514  13.5663  13.5663  16.4806  16.4806  16.6308  16.6308
    17.0493  17.0493  17.1918  17.1918  22.5992  22.5993

     occupation numbers 
     1.0000   1.0000   1.0000   1.0000   1.0000   1.0000   1.0000   1.0000
     1.0000   1.0000   1.0000   1.0000   1.0000   1.0000   1.0000   1.0000
     1.0000   1.0000   1.0000   1.0000   1.0000   1.0000   1.0000   1.0000
     1.0000   1.0000   1.0000   1.0000   1.0000   1.0000   1.0000   1.0000
     1.0000   1.0000   1.0000   1.0000   1.0000   1.0000   1.0000   1.0000
     1.0000   1.0000   1.0000   1.0000   1.0000   1.0000   1.0000   1.0000
     1.0000   1.0000   1.0000   1.0000   1.0000   1.0000   1.0000   1.0000
     1.0000   1.0000   1.0000   1.0000  -0.0000  -0.0000  -0.0000  -0.0000
    -0.0000  -0.0000  -0.0000  -0.0000  -0.0000  -0.0000

          k = 0.4444 0.4444 0.5343 (  5348 PWs)   bands (ev):

   -79.3806 -79.3806 -79.3806 -79.3806 -46.2302 -46.2302 -46.2298 -46.2298
   -32.8063 -32.8063 -32.7992 -32.7992 -32.6345 -32.6345 -32.6299 -32.6299
    -5.7496  -5.7496  -5.7298  -5.7298  -5.4516  -5.4516  -5.4050  -5.4050
     5.5058   5.5058   5.5354   5.5354   6.1379   6.1379   6.2229   6.2229
     6.9386   6.9386   7.0489   7.0489   8.4353   8.4353   8.4889   8.4889
     9.4305   9.4305   9.5043   9.5043  10.3541  10.3541  10.4797  10.4797
    11.9642  11.9642  11.9991  11.9991  12.5551  12.5551  12.8757  12.8757
    13.2481  13.2481  13.5712  13.5712  16.0329  16.0329  16.2346  16.2346
    17.0565  17.0565  17.2578  17.2578  22.9085  22.9091

     occupation numbers 
     1.0000   1.0000   1.0000   1.0000   1.0000   1.0000   1.0000   1.0000
     1.0000   1.0000   1.0000   1.0000   1.0000   1.0000   1.0000   1.0000
     1.0000   1.0000   1.0000   1.0000   1.0000   1.0000   1.0000   1.0000
     1.0000   1.0000   1.0000   1.0000   1.0000   1.0000   1.0000   1.0000
     1.0000   1.0000   1.0000   1.0000   1.0000   1.0000   1.0000   1.0000
     1.0000   1.0000   1.0000   1.0000   1.0000   1.0000   1.0000   1.0000
     1.0000   1.0000   1.0000   1.0000   1.0000   1.0000   1.0000   1.0000
     1.0000   1.0000   1.0000   1.0000  -0.0000  -0.0000  -0.0000  -0.0000
    -0.0000  -0.0000  -0.0000  -0.0000  -0.0000  -0.0000

          k = 0.4444 0.4444-0.7124 (  5374 PWs)   bands (ev):

   -79.3803 -79.3803 -79.3803 -79.3803 -46.2319 -46.2319 -46.2314 -46.2314
   -32.8159 -32.8159 -32.8084 -32.8084 -32.6354 -32.6354 -32.6306 -32.6306
    -5.6726  -5.6726  -5.6137  -5.6137  -5.5102  -5.5102  -5.4181  -5.4181
     5.6979   5.6979   5.7838   5.7838   6.0801   6.0801   6.3173   6.3173
     6.6158   6.6158   6.8883   6.8883   8.2315   8.2315   8.2937   8.2937
     9.6199   9.6199   9.6649   9.6649  10.5972  10.5972  10.6970  10.6970
    11.9074  11.9074  11.9406  11.9406  12.3793  12.3793  12.6836  12.6836
    13.3840  13.3840  13.6819  13.6819  15.8436  15.8436  16.0768  16.0768
    17.0311  17.0311  17.2740  17.2740  23.0552  23.0556

     occupation numbers 
     1.0000   1.0000   1.0000   1.0000   1.0000   1.0000   1.0000   1.0000
     1.0000   1.0000   1.0000   1.0000   1.0000   1.0000   1.0000   1.0000
     1.0000   1.0000   1.0000   1.0000   1.0000   1.0000   1.0000   1.0000
     1.0000   1.0000   1.0000   1.0000   1.0000   1.0000   1.0000   1.0000
     1.0000   1.0000   1.0000   1.0000   1.0000   1.0000   1.0000   1.0000
     1.0000   1.0000   1.0000   1.0000   1.0000   1.0000   1.0000   1.0000
     1.0000   1.0000   1.0000   1.0000   1.0000   1.0000   1.0000   1.0000
     1.0000   1.0000   1.0002   1.0002  -0.0000  -0.0000  -0.0000  -0.0000
    -0.0000  -0.0000  -0.0000  -0.0000  -0.0000  -0.0000

     the Fermi energy is    13.8773 ev

!    total energy              =    -553.07992009 Ry
     estimated scf accuracy    <          2.1E-11 Ry
     smearing contrib. (-TS)   =      -0.00018843 Ry
     internal energy E=F+TS    =    -553.07973166 Ry

     The total energy is F=E-TS. E is the sum of the following terms:
     one-electron contribution =    -190.91175653 Ry
     hartree contribution      =     122.73284421 Ry
     xc contribution           =     -69.91480882 Ry
     ewald contribution        =    -414.98601052 Ry

     convergence has been achieved in  10 iterations

     Forces acting on atoms (cartesian axes, Ry/au):

     atom    1 type  2   force =     0.00000000    0.00000000    0.00000000
     atom    2 type  2   force =     0.00000000    0.00000000   -0.00000000
     atom    3 type  1   force =     0.00079032   -0.00079032   -0.00000000
     atom    4 type  1   force =    -0.00079032   -0.00079032    0.00000000
     atom    5 type  1   force =     0.00079032    0.00079032    0.00000000
     atom    6 type  1   force =    -0.00079032    0.00079032   -0.00000000
     The non-local contrib.  to forces
     atom    1 type  2   force =     0.00000000    0.00000000    0.00000000
     atom    2 type  2   force =     0.00000000    0.00000000    0.00000000
     atom    3 type  1   force =    -0.05375474    0.05375474    0.00000000
     atom    4 type  1   force =     0.05375474    0.05375474    0.00000000
     atom    5 type  1   force =    -0.05375474   -0.05375474    0.00000000
     atom    6 type  1   force =     0.05375474   -0.05375474    0.00000000
     The ionic contribution  to forces
     atom    1 type  2   force =    -0.00000000   -0.00000000    0.00000000
     atom    2 type  2   force =     0.00000000    0.00000000   -0.00000000
     atom    3 type  1   force =     1.42937233   -1.42937233    0.00000000
     atom    4 type  1   force =    -1.42937233   -1.42937233   -0.00000000
     atom    5 type  1   force =     1.42937233    1.42937233   -0.00000000
     atom    6 type  1   force =    -1.42937233    1.42937233    0.00000000
     The local contribution  to forces
     atom    1 type  2   force =     0.00000000    0.00000000    0.00000000
     atom    2 type  2   force =     0.00000000    0.00000000    0.00000000
     atom    3 type  1   force =    -1.37482685    1.37482685    0.00000000
     atom    4 type  1   force =     1.37482685    1.37482685    0.00000000
     atom    5 type  1   force =    -1.37482685   -1.37482685    0.00000000
     atom    6 type  1   force =     1.37482685   -1.37482685    0.00000000
     The core correction contribution to forces
     atom    1 type  2   force =     0.00000000    0.00000000    0.00000000
     atom    2 type  2   force =     0.00000000    0.00000000    0.00000000
     atom    3 type  1   force =     0.00000000    0.00000000    0.00000000
     atom    4 type  1   force =     0.00000000    0.00000000    0.00000000
     atom    5 type  1   force =     0.00000000    0.00000000    0.00000000
     atom    6 type  1   force =     0.00000000    0.00000000    0.00000000
     The Hubbard contrib.    to forces
     atom    1 type  2   force =     0.00000000    0.00000000    0.00000000
     atom    2 type  2   force =     0.00000000    0.00000000    0.00000000
     atom    3 type  1   force =     0.00000000    0.00000000    0.00000000
     atom    4 type  1   force =     0.00000000    0.00000000    0.00000000
     atom    5 type  1   force =     0.00000000    0.00000000    0.00000000
     atom    6 type  1   force =     0.00000000    0.00000000    0.00000000
     The SCF correction term to forces
     atom    1 type  2   force =     0.00000000   -0.00000000   -0.00000000
     atom    2 type  2   force =     0.00000000    0.00000000    0.00000000
     atom    3 type  1   force =    -0.00000041    0.00000041   -0.00000000
     atom    4 type  1   force =     0.00000041    0.00000041   -0.00000000
     atom    5 type  1   force =    -0.00000041   -0.00000041   -0.00000000
     atom    6 type  1   force =     0.00000041   -0.00000041   -0.00000000

     Total force =     0.002235     Total SCF correction =     0.000001


     Computing stress (Cartesian axis) and pressure

          total   stress  (Ry/bohr**3)                   (kbar)     P=      -20.30
  -0.00011912   0.00000000   0.00000000          -17.52        0.00        0.00
   0.00000000  -0.00011912   0.00000000            0.00      -17.52        0.00
   0.00000000   0.00000000  -0.00017580            0.00        0.00      -25.86

     kinetic stress (kbar)  48453.50      0.00      0.00
                                0.00  48453.50      0.00
                                0.00      0.00  47528.57

     local   stress (kbar) -12684.50     -0.00     -0.00
                               -0.00 -12684.50     -0.00
                               -0.00     -0.00 -44404.87

     nonloc. stress (kbar)  14527.48      0.00      0.00
                                0.00  14527.48      0.00
                                0.00      0.00  14741.44

     hartree stress (kbar)   9610.42      0.00      0.00
                                0.00   9610.42      0.00
                                0.00      0.00  21379.93

     exc-cor stress (kbar)  -7288.21      0.00      0.00
                                0.00  -7288.21     -0.00
                                0.00     -0.00  -7263.49

     corecor stress (kbar)      0.00      0.00      0.00
                                0.00      0.00      0.00
                                0.00      0.00      0.00

     ewald   stress (kbar) -52636.21     -0.00     -0.00
                               -0.00 -52636.21     -0.00
                               -0.00     -0.00 -32007.45

     hubbard stress (kbar)      0.00      0.00      0.00
                                0.00      0.00      0.00
                                0.00      0.00      0.00

     DFT-D   stress (kbar)      0.00      0.00      0.00
                                0.00      0.00      0.00
                                0.00      0.00      0.00

     XDM     stress (kbar)      0.00      0.00      0.00
                                0.00      0.00      0.00
                                0.00      0.00      0.00

     dft-nl  stress (kbar)      0.00      0.00      0.00
                                0.00      0.00      0.00
                                0.00      0.00      0.00

     TS-vdW  stress (kbar)      0.00      0.00      0.00
                                0.00      0.00      0.00
                                0.00      0.00      0.00


                                0.00      0.00      0.00
                                0.00      0.00      0.00


                                0.00      0.00      0.00


     Writing all to output data dir tmp/espresso.save/
 
     init_run     :      7.51s CPU      3.90s WALL (       1 calls)
     electrons    :    254.56s CPU    130.43s WALL (       1 calls)
     forces       :     14.75s CPU      7.58s WALL (       1 calls)
     stress       :     20.89s CPU     10.56s WALL (       1 calls)

     Called by init_run:
     wfcinit      :      7.45s CPU      3.84s WALL (       1 calls)
     wfcinit:atom :      0.02s CPU      0.01s WALL (      75 calls)
     wfcinit:wfcr :      7.25s CPU      3.73s WALL (      75 calls)
     potinit      :      0.02s CPU      0.01s WALL (       1 calls)
     hinit0       :      0.03s CPU      0.03s WALL (       1 calls)

     Called by electrons:
     c_bands      :    233.16s CPU    119.37s WALL (      10 calls)
     sum_band     :     21.18s CPU     10.89s WALL (      10 calls)
     v_of_rho     :      0.05s CPU      0.03s WALL (      11 calls)
     v_h          :      0.00s CPU      0.00s WALL (      11 calls)
     v_xc         :      0.04s CPU      0.02s WALL (      11 calls)
     mix_rho      :      0.04s CPU      0.02s WALL (      10 calls)

     Called by c_bands:
     init_us_2    :      0.69s CPU      0.36s WALL (    1725 calls)
     init_us_2:cp :      0.67s CPU      0.36s WALL (    1725 calls)
     cegterg      :    215.08s CPU    110.15s WALL (     750 calls)

     Called by sum_band:
     sum_band:wei :      0.12s CPU      0.06s WALL (      10 calls)
     sum_band:loo :     21.04s CPU     10.81s WALL (      10 calls)
     sum_band:buf :      0.13s CPU      0.06s WALL (     750 calls)
     sum_band:ini :      0.21s CPU      0.11s WALL (     750 calls)

     Called by *egterg:
     cdiaghg      :     31.30s CPU     15.93s WALL (    2560 calls)
     cegterg:over :     13.25s CPU      6.73s WALL (    1810 calls)
     cegterg:upda :     10.47s CPU      5.33s WALL (    1810 calls)
     cegterg:last :     18.54s CPU      9.41s WALL (    1500 calls)
     cdiaghg:chol :      1.45s CPU      0.74s WALL (    2560 calls)
     cdiaghg:inve :      0.23s CPU      0.12s WALL (    2560 calls)
     cdiaghg:para :      3.29s CPU      1.67s WALL (    5120 calls)
     h_psi        :    143.20s CPU     73.64s WALL (    2635 calls)
     g_psi        :      0.21s CPU      0.11s WALL (    1810 calls)

     Called by h_psi:
     h_psi:calbec :     17.27s CPU      9.03s WALL (    2635 calls)
     vloc_psi     :    100.65s CPU     51.75s WALL (    2635 calls)
     add_vuspsi   :     24.95s CPU     12.70s WALL (    2635 calls)

     General routines
     calbec       :     21.81s CPU     11.39s WALL (    3010 calls)
     fft          :      0.06s CPU      0.03s WALL (     150 calls)
     ffts         :      0.01s CPU      0.01s WALL (      40 calls)
     fftw         :    113.98s CPU     58.61s WALL (  643660 calls)
 
     Parallel routines
 
     PWSCF        :   5m 6.92s CPU   2m40.76s WALL

 
   This run was terminated on:  11: 5: 5  10Apr2022            

=------------------------------------------------------------------------------=
   JOB DONE.
=------------------------------------------------------------------------------=
