
     Program PWSCF v.7.0 starts on 10Apr2022 at 10:55: 5 

     This program is part of the open-source Quantum ESPRESSO suite
     for quantum simulation of materials; please cite
         "P. Giannozzi et al., J. Phys.:Condens. Matter 21 395502 (2009);
         "P. Giannozzi et al., J. Phys.:Condens. Matter 29 465901 (2017);
         "P. Giannozzi et al., J. Chem. Phys. 152 154105 (2020);
          URL http://www.quantum-espresso.org", 
     in publications or presentations arising from this work. More details at
     http://www.quantum-espresso.org/quote

     Parallel version (MPI & OpenMP), running on      64 processor cores
     Number of MPI processes:                32
     Threads/MPI process:                     2

     MPI processes distributed on     1 nodes
     R & G space division:  proc/nbgrp/npool/nimage =      32
     230664 MiB available memory on the printing compute node when the environment starts
 
     Reading input from kpoints_558.pwi
Warning: card &CELL ignored
Warning: card / ignored

     Current dimensions of program PWSCF are:
     Max number of different atomic species (ntypx) = 10
     Max number of k-points (npk) =  40000
     Max angular momentum in pseudopotentials (lmaxx) =  4

     Subspace diagonalization in iterative solution of the eigenvalue problem:
     one sub-group per band group will be used
     scalapack distributed-memory algorithm (size of sub-group:  5*  5 procs)

 
     Parallelization info
     --------------------
     sticks:   dense  smooth     PW     G-vecs:    dense   smooth      PW
     Min          58      58     17                 1342     1342     207
     Max          59      59     18                 1345     1345     210
     Sum        1885    1885    545                42999    42999    6675
 
     Using Slab Decomposition
 

     Title: 
     IrO2 Unit Cell                                                             


     bravais-lattice index     =            6
     lattice parameter (alat)  =       8.5888  a.u.
     unit-cell volume          =     444.6868 (a.u.)^3
     number of atoms/cell      =            6
     number of atomic types    =            2
     number of electrons       =        58.00
     number of Kohn-Sham states=           70
     kinetic-energy cutoff     =      80.0000  Ry
     charge density cutoff     =     320.0000  Ry
     scf convergence threshold =      1.0E-09
     mixing beta               =       0.7000
     number of iterations used =            8  plain     mixing
     Exchange-correlation= PBE
                           (   1   4   3   4   0   0   0)
     Non magnetic calculation with spin-orbit


     celldm(1)=   8.588800  celldm(2)=   0.000000  celldm(3)=   0.701870
     celldm(4)=   0.000000  celldm(5)=   0.000000  celldm(6)=   0.000000

     crystal axes: (cart. coord. in units of alat)
               a(1) = (   1.000000   0.000000   0.000000 )  
               a(2) = (   0.000000   1.000000   0.000000 )  
               a(3) = (   0.000000   0.000000   0.701870 )  

     reciprocal axes: (cart. coord. in units 2 pi/alat)
               b(1) = (  1.000000  0.000000  0.000000 )  
               b(2) = (  0.000000  1.000000  0.000000 )  
               b(3) = (  0.000000  0.000000  1.424765 )  


     PseudoPot. # 1 for O  read from file:
     ../../XX_PSEUDO/O_ONCV_PBE_fr.upf
     MD5 check sum: 59c925217d3b58c6d762355590b68b09
     Pseudo is Norm-conserving, Zval =  6.0
     Generated using ONCVPSP code by D. R. Hamann
     Using radial grid of  936 points,  6 beta functions with: 
                l(1) =   0
                l(2) =   0
                l(3) =   1
                l(4) =   1
                l(5) =   1
                l(6) =   1

     PseudoPot. # 2 for Ir read from file:
     ../../XX_PSEUDO/Ir_ONCV_PBE_fr.upf
     MD5 check sum: 924e909c4146afa09f62ee3401806954
     Pseudo is Norm-conserving, Zval = 17.0
     Generated using ONCVPSP code by D. R. Hamann
     Using radial grid of 1310 points, 14 beta functions with: 
                l(1) =   0
                l(2) =   0
                l(3) =   1
                l(4) =   1
                l(5) =   1
                l(6) =   1
                l(7) =   2
                l(8) =   2
                l(9) =   2
               l(10) =   2
               l(11) =   3
               l(12) =   3
               l(13) =   3
               l(14) =   3

     atomic species   valence    mass     pseudopotential
        O              6.00    15.99900     O ( 1.00)
        Ir            17.00   192.21700     Ir( 1.00)

     16 Sym. Ops., with inversion, found ( 8 have fractional translation)


                                    s                        frac. trans.

      isym =  1     identity                                     

 cryst.   s( 1) = (     1          0          0      )
                  (     0          1          0      )
                  (     0          0          1      )

 cart.    s( 1) = (  1.0000000  0.0000000  0.0000000 )
                  (  0.0000000  1.0000000  0.0000000 )
                  (  0.0000000  0.0000000  1.0000000 )


      isym =  2     180 deg rotation - cart. axis [0,0,1]        

 cryst.   s( 2) = (    -1          0          0      )
                  (     0         -1          0      )
                  (     0          0          1      )

 cart.    s( 2) = ( -1.0000000  0.0000000  0.0000000 )
                  (  0.0000000 -1.0000000  0.0000000 )
                  (  0.0000000  0.0000000  1.0000000 )


      isym =  3     180 deg rotation - cart. axis [0,1,0]        

 cryst.   s( 3) = (    -1          0          0      )    f =(  0.5000000 )
                  (     0          1          0      )       ( -0.5000000 )
                  (     0          0         -1      )       (  0.5000000 )

 cart.    s( 3) = ( -1.0000000  0.0000000  0.0000000 )    f =(  0.5000000 )
                  (  0.0000000  1.0000000  0.0000000 )       ( -0.5000000 )
                  (  0.0000000  0.0000000 -1.0000000 )       (  0.3509351 )


      isym =  4     180 deg rotation - cart. axis [1,0,0]        

 cryst.   s( 4) = (     1          0          0      )    f =( -0.5000000 )
                  (     0         -1          0      )       (  0.5000000 )
                  (     0          0         -1      )       (  0.5000000 )

 cart.    s( 4) = (  1.0000000  0.0000000  0.0000000 )    f =( -0.5000000 )
                  (  0.0000000 -1.0000000  0.0000000 )       (  0.5000000 )
                  (  0.0000000  0.0000000 -1.0000000 )       (  0.3509351 )


      isym =  5     180 deg rotation - cart. axis [1,1,0]        

 cryst.   s( 5) = (     0          1          0      )
                  (     1          0          0      )
                  (     0          0         -1      )

 cart.    s( 5) = (  0.0000000  1.0000000  0.0000000 )
                  (  1.0000000  0.0000000  0.0000000 )
                  (  0.0000000  0.0000000 -1.0000000 )


      isym =  6     180 deg rotation - cart. axis [1,-1,0]       

 cryst.   s( 6) = (     0         -1          0      )
                  (    -1          0          0      )
                  (     0          0         -1      )

 cart.    s( 6) = (  0.0000000 -1.0000000  0.0000000 )
                  ( -1.0000000  0.0000000  0.0000000 )
                  (  0.0000000  0.0000000 -1.0000000 )


      isym =  7      90 deg rotation - cart. axis [0,0,-1]       

 cryst.   s( 7) = (     0         -1          0      )    f =( -0.5000000 )
                  (     1          0          0      )       (  0.5000000 )
                  (     0          0          1      )       ( -0.5000000 )

 cart.    s( 7) = (  0.0000000  1.0000000  0.0000000 )    f =( -0.5000000 )
                  ( -1.0000000  0.0000000  0.0000000 )       (  0.5000000 )
                  (  0.0000000  0.0000000  1.0000000 )       ( -0.3509351 )


      isym =  8      90 deg rotation - cart. axis [0,0,1]        

 cryst.   s( 8) = (     0          1          0      )    f =(  0.5000000 )
                  (    -1          0          0      )       ( -0.5000000 )
                  (     0          0          1      )       ( -0.5000000 )

 cart.    s( 8) = (  0.0000000 -1.0000000  0.0000000 )    f =(  0.5000000 )
                  (  1.0000000  0.0000000  0.0000000 )       ( -0.5000000 )
                  (  0.0000000  0.0000000  1.0000000 )       ( -0.3509351 )


      isym =  9     inversion                                    

 cryst.   s( 9) = (    -1          0          0      )
                  (     0         -1          0      )
                  (     0          0         -1      )

 cart.    s( 9) = ( -1.0000000  0.0000000  0.0000000 )
                  (  0.0000000 -1.0000000  0.0000000 )
                  (  0.0000000  0.0000000 -1.0000000 )


      isym = 10     inv. 180 deg rotation - cart. axis [0,0,1]   

 cryst.   s(10) = (     1          0          0      )
                  (     0          1          0      )
                  (     0          0         -1      )

 cart.    s(10) = (  1.0000000  0.0000000  0.0000000 )
                  (  0.0000000  1.0000000  0.0000000 )
                  (  0.0000000  0.0000000 -1.0000000 )


      isym = 11     inv. 180 deg rotation - cart. axis [0,1,0]   

 cryst.   s(11) = (     1          0          0      )    f =( -0.5000000 )
                  (     0         -1          0      )       (  0.5000000 )
                  (     0          0          1      )       ( -0.5000000 )

 cart.    s(11) = (  1.0000000  0.0000000  0.0000000 )    f =( -0.5000000 )
                  (  0.0000000 -1.0000000  0.0000000 )       (  0.5000000 )
                  (  0.0000000  0.0000000  1.0000000 )       ( -0.3509351 )


      isym = 12     inv. 180 deg rotation - cart. axis [1,0,0]   

 cryst.   s(12) = (    -1          0          0      )    f =(  0.5000000 )
                  (     0          1          0      )       ( -0.5000000 )
                  (     0          0          1      )       ( -0.5000000 )

 cart.    s(12) = ( -1.0000000  0.0000000  0.0000000 )    f =(  0.5000000 )
                  (  0.0000000  1.0000000  0.0000000 )       ( -0.5000000 )
                  (  0.0000000  0.0000000  1.0000000 )       ( -0.3509351 )


      isym = 13     inv. 180 deg rotation - cart. axis [1,1,0]   

 cryst.   s(13) = (     0         -1          0      )
                  (    -1          0          0      )
                  (     0          0          1      )

 cart.    s(13) = (  0.0000000 -1.0000000  0.0000000 )
                  ( -1.0000000  0.0000000  0.0000000 )
                  (  0.0000000  0.0000000  1.0000000 )


      isym = 14     inv. 180 deg rotation - cart. axis [1,-1,0]  

 cryst.   s(14) = (     0          1          0      )
                  (     1          0          0      )
                  (     0          0          1      )

 cart.    s(14) = (  0.0000000  1.0000000  0.0000000 )
                  (  1.0000000  0.0000000  0.0000000 )
                  (  0.0000000  0.0000000  1.0000000 )


      isym = 15     inv.  90 deg rotation - cart. axis [0,0,-1]  

 cryst.   s(15) = (     0          1          0      )    f =(  0.5000000 )
                  (    -1          0          0      )       ( -0.5000000 )
                  (     0          0         -1      )       (  0.5000000 )

 cart.    s(15) = (  0.0000000 -1.0000000  0.0000000 )    f =(  0.5000000 )
                  (  1.0000000  0.0000000  0.0000000 )       ( -0.5000000 )
                  (  0.0000000  0.0000000 -1.0000000 )       (  0.3509351 )


      isym = 16     inv.  90 deg rotation - cart. axis [0,0,1]   

 cryst.   s(16) = (     0         -1          0      )    f =( -0.5000000 )
                  (     1          0          0      )       (  0.5000000 )
                  (     0          0         -1      )       (  0.5000000 )

 cart.    s(16) = (  0.0000000  1.0000000  0.0000000 )    f =( -0.5000000 )
                  ( -1.0000000  0.0000000  0.0000000 )       (  0.5000000 )
                  (  0.0000000  0.0000000 -1.0000000 )       (  0.3509351 )


     double point group D_4h(4/mmm)
     there are 14 classes and  4 irreducible representations
     the character table:

       E     -E    2C4   -2C4   C2    2C2' 2C2'' i     -i    2S4   -2S4   s_h 
                               -C2   -2C2' -2C2'                         -s_h 
G_6+   2.00 -2.00  1.41 -1.41  0.00  0.00  0.00  2.00 -2.00  1.41 -1.41  0.00
G_7+   2.00 -2.00 -1.41  1.41  0.00  0.00  0.00  2.00 -2.00 -1.41  1.41  0.00
G_6-   2.00 -2.00  1.41 -1.41  0.00  0.00  0.00 -2.00  2.00 -1.41  1.41  0.00
G_7-   2.00 -2.00 -1.41  1.41  0.00  0.00  0.00 -2.00  2.00  1.41 -1.41  0.00

        2s_v  2s_d
       -2s_v -2s_d
G_6+   0.00  0.00
G_7+   0.00  0.00
G_6-   0.00  0.00
G_7-   0.00  0.00

     the symmetry operations in each class and the name of the first element:

     E             1
          identity                                               
     -E           -1
          identity E                                             
     2C4           7    8
           90 deg rotation - cart. axis [0,0,-1]                 
     -2C4         -7   -8
           90 deg rotation - cart. axis [0,0,-1] E               
      C2  -C2      2   -2
          180 deg rotation - cart. axis [0,0,1]                  
      2C2'-2C2'    3   -3    4   -4
          180 deg rotation - cart. axis [0,1,0]                  
     2C2''-2C2'    5   -5   -6    6
          180 deg rotation - cart. axis [1,1,0]                  
     i             9
          inversion                                              
     -i           -9
          inversion E                                            
     2S4          15   16
          inv.  90 deg rotation - cart. axis [0,0,-1]            
     -2S4        -15  -16
          inv.  90 deg rotation - cart. axis [0,0,-1] E          
      s_h -s_h    10  -10
          inv. 180 deg rotation - cart. axis [0,0,1]             
      2s_v-2s_v   11  -11   12  -12
          inv. 180 deg rotation - cart. axis [0,1,0]             
      2s_d-2s_d   13  -13  -14   14
          inv. 180 deg rotation - cart. axis [1,1,0]             

   Cartesian axes

     site n.     atom                  positions (alat units)
         1           Ir  tau(   1) = (   0.0000000   0.0000000   0.0000000  )
         2           Ir  tau(   2) = (   0.5000000   0.5000000   0.3509351  )
         3           O   tau(   3) = (   0.1916000   0.8084000   0.3509351  )
         4           O   tau(   4) = (   0.3084000   0.3084000   0.0000000  )
         5           O   tau(   5) = (   0.6916000   0.6916000   0.0000000  )
         6           O   tau(   6) = (   0.8084000   0.1916000   0.3509351  )

   Crystallographic axes

     site n.     atom                  positions (cryst. coord.)
         1           Ir  tau(   1) = (  0.0000000  0.0000000  0.0000000  )
         2           Ir  tau(   2) = (  0.5000000  0.5000000  0.5000000  )
         3           O   tau(   3) = (  0.1916000  0.8084000  0.5000000  )
         4           O   tau(   4) = (  0.3084000  0.3084000  0.0000000  )
         5           O   tau(   5) = (  0.6916000  0.6916000  0.0000000  )
         6           O   tau(   6) = (  0.8084000  0.1916000  0.5000000  )

     number of k points=    30  Methfessel-Paxton smearing, width (Ry)=  0.0050
                       cart. coord. in units 2pi/alat
        k(    1) = (   0.0000000   0.0000000   0.0000000), wk =   0.0050000
        k(    2) = (   0.0000000   0.0000000   0.1780956), wk =   0.0100000
        k(    3) = (   0.0000000   0.0000000   0.3561912), wk =   0.0100000
        k(    4) = (   0.0000000   0.0000000   0.5342868), wk =   0.0100000
        k(    5) = (   0.0000000   0.0000000  -0.7123824), wk =   0.0050000
        k(    6) = (   0.0000000   0.2000000   0.0000000), wk =   0.0200000
        k(    7) = (   0.0000000   0.2000000   0.1780956), wk =   0.0400000
        k(    8) = (   0.0000000   0.2000000   0.3561912), wk =   0.0400000
        k(    9) = (   0.0000000   0.2000000   0.5342868), wk =   0.0400000
        k(   10) = (   0.0000000   0.2000000  -0.7123824), wk =   0.0200000
        k(   11) = (   0.0000000   0.4000000   0.0000000), wk =   0.0200000
        k(   12) = (   0.0000000   0.4000000   0.1780956), wk =   0.0400000
        k(   13) = (   0.0000000   0.4000000   0.3561912), wk =   0.0400000
        k(   14) = (   0.0000000   0.4000000   0.5342868), wk =   0.0400000
        k(   15) = (   0.0000000   0.4000000  -0.7123824), wk =   0.0200000
        k(   16) = (   0.2000000   0.2000000   0.0000000), wk =   0.0200000
        k(   17) = (   0.2000000   0.2000000   0.1780956), wk =   0.0400000
        k(   18) = (   0.2000000   0.2000000   0.3561912), wk =   0.0400000
        k(   19) = (   0.2000000   0.2000000   0.5342868), wk =   0.0400000
        k(   20) = (   0.2000000   0.2000000  -0.7123824), wk =   0.0200000
        k(   21) = (   0.2000000   0.4000000   0.0000000), wk =   0.0400000
        k(   22) = (   0.2000000   0.4000000   0.1780956), wk =   0.0800000
        k(   23) = (   0.2000000   0.4000000   0.3561912), wk =   0.0800000
        k(   24) = (   0.2000000   0.4000000   0.5342868), wk =   0.0800000
        k(   25) = (   0.2000000   0.4000000  -0.7123824), wk =   0.0400000
        k(   26) = (   0.4000000   0.4000000   0.0000000), wk =   0.0200000
        k(   27) = (   0.4000000   0.4000000   0.1780956), wk =   0.0400000
        k(   28) = (   0.4000000   0.4000000   0.3561912), wk =   0.0400000
        k(   29) = (   0.4000000   0.4000000   0.5342868), wk =   0.0400000
        k(   30) = (   0.4000000   0.4000000  -0.7123824), wk =   0.0200000

                       cryst. coord.
        k(    1) = (   0.0000000   0.0000000   0.0000000), wk =   0.0050000
        k(    2) = (   0.0000000   0.0000000   0.1250000), wk =   0.0100000
        k(    3) = (   0.0000000   0.0000000   0.2500000), wk =   0.0100000
        k(    4) = (   0.0000000   0.0000000   0.3750000), wk =   0.0100000
        k(    5) = (   0.0000000   0.0000000  -0.5000000), wk =   0.0050000
        k(    6) = (   0.0000000   0.2000000   0.0000000), wk =   0.0200000
        k(    7) = (   0.0000000   0.2000000   0.1250000), wk =   0.0400000
        k(    8) = (   0.0000000   0.2000000   0.2500000), wk =   0.0400000
        k(    9) = (   0.0000000   0.2000000   0.3750000), wk =   0.0400000
        k(   10) = (   0.0000000   0.2000000  -0.5000000), wk =   0.0200000
        k(   11) = (   0.0000000   0.4000000   0.0000000), wk =   0.0200000
        k(   12) = (   0.0000000   0.4000000   0.1250000), wk =   0.0400000
        k(   13) = (   0.0000000   0.4000000   0.2500000), wk =   0.0400000
        k(   14) = (   0.0000000   0.4000000   0.3750000), wk =   0.0400000
        k(   15) = (   0.0000000   0.4000000  -0.5000000), wk =   0.0200000
        k(   16) = (   0.2000000   0.2000000   0.0000000), wk =   0.0200000
        k(   17) = (   0.2000000   0.2000000   0.1250000), wk =   0.0400000
        k(   18) = (   0.2000000   0.2000000   0.2500000), wk =   0.0400000
        k(   19) = (   0.2000000   0.2000000   0.3750000), wk =   0.0400000
        k(   20) = (   0.2000000   0.2000000  -0.5000000), wk =   0.0200000
        k(   21) = (   0.2000000   0.4000000   0.0000000), wk =   0.0400000
        k(   22) = (   0.2000000   0.4000000   0.1250000), wk =   0.0800000
        k(   23) = (   0.2000000   0.4000000   0.2500000), wk =   0.0800000
        k(   24) = (   0.2000000   0.4000000   0.3750000), wk =   0.0800000
        k(   25) = (   0.2000000   0.4000000  -0.5000000), wk =   0.0400000
        k(   26) = (   0.4000000   0.4000000   0.0000000), wk =   0.0200000
        k(   27) = (   0.4000000   0.4000000   0.1250000), wk =   0.0400000
        k(   28) = (   0.4000000   0.4000000   0.2500000), wk =   0.0400000
        k(   29) = (   0.4000000   0.4000000   0.3750000), wk =   0.0400000
        k(   30) = (   0.4000000   0.4000000  -0.5000000), wk =   0.0200000

     Dense  grid:    42999 G-vectors     FFT dimensions: (  50,  50,  36)

     Dynamical RAM for                 wfc:       0.36 MB

     Dynamical RAM for     wfc (w. buffer):      11.06 MB

     Dynamical RAM for           str. fact:       0.04 MB

     Dynamical RAM for           local pot:       0.00 MB

     Dynamical RAM for          nlocal pot:       0.46 MB

     Dynamical RAM for                qrad:      20.10 MB

     Dynamical RAM for          rho,v,vnew:       0.70 MB

     Dynamical RAM for               rhoin:       0.23 MB

     Dynamical RAM for            rho*nmix:       1.31 MB

     Dynamical RAM for           G-vectors:       0.09 MB

     Dynamical RAM for          h,s,v(r/c):       0.04 MB

     Dynamical RAM for          <psi|beta>:       0.38 MB

     Dynamical RAM for                 psi:       0.71 MB

     Dynamical RAM for                hpsi:       0.71 MB

     Dynamical RAM for      wfcinit/wfcrot:       0.67 MB

     Estimated static dynamical RAM per process >      33.05 MB

     Estimated max dynamical RAM per process >      36.21 MB

     Estimated total dynamical RAM >       1.13 GB

     Initial potential from superposition of free atoms

     starting charge      57.9997, renormalised to      58.0000
     Starting wfcs are   72 randomized atomic wfcs

     total cpu time spent up to now is        1.7 secs

     Self-consistent Calculation

     iteration #  1     ecut=    80.00 Ry     beta= 0.70
     Davidson diagonalization with overlap

---- Real-time Memory Report at c_bands before calling an iterative solver
            84 MiB given to the printing process from OS
             0 MiB allocation reported by mallinfo(arena+hblkhd)
        228998 MiB available memory on the node where the printing process lives
------------------
     ethr =  1.00E-02,  avg # of iterations =  2.4

     total cpu time spent up to now is        6.8 secs

     total energy              =    -552.42734489 Ry
     estimated scf accuracy    <       1.21458135 Ry

     iteration #  2     ecut=    80.00 Ry     beta= 0.70
     Davidson diagonalization with overlap

---- Real-time Memory Report at c_bands before calling an iterative solver
            92 MiB given to the printing process from OS
             0 MiB allocation reported by mallinfo(arena+hblkhd)
        228823 MiB available memory on the node where the printing process lives
------------------
     ethr =  2.09E-03,  avg # of iterations =  2.1

     total cpu time spent up to now is       12.5 secs

     total energy              =    -552.28435230 Ry
     estimated scf accuracy    <       4.27691037 Ry

     iteration #  3     ecut=    80.00 Ry     beta= 0.70
     Davidson diagonalization with overlap

---- Real-time Memory Report at c_bands before calling an iterative solver
            94 MiB given to the printing process from OS
             0 MiB allocation reported by mallinfo(arena+hblkhd)
        228777 MiB available memory on the node where the printing process lives
------------------
     ethr =  2.09E-03,  avg # of iterations =  2.0

     total cpu time spent up to now is       17.8 secs

     total energy              =    -553.07565513 Ry
     estimated scf accuracy    <       0.03423076 Ry

     iteration #  4     ecut=    80.00 Ry     beta= 0.70
     Davidson diagonalization with overlap

---- Real-time Memory Report at c_bands before calling an iterative solver
            95 MiB given to the printing process from OS
             0 MiB allocation reported by mallinfo(arena+hblkhd)
        228764 MiB available memory on the node where the printing process lives
------------------
     ethr =  5.90E-05,  avg # of iterations =  2.9

     total cpu time spent up to now is       23.2 secs

     total energy              =    -553.07918118 Ry
     estimated scf accuracy    <       0.00495764 Ry

     iteration #  5     ecut=    80.00 Ry     beta= 0.70
     Davidson diagonalization with overlap

---- Real-time Memory Report at c_bands before calling an iterative solver
            96 MiB given to the printing process from OS
             0 MiB allocation reported by mallinfo(arena+hblkhd)
        228761 MiB available memory on the node where the printing process lives
------------------
     ethr =  8.55E-06,  avg # of iterations =  2.3

     total cpu time spent up to now is       28.0 secs

     total energy              =    -553.08005619 Ry
     estimated scf accuracy    <       0.00025804 Ry

     iteration #  6     ecut=    80.00 Ry     beta= 0.70
     Davidson diagonalization with overlap

---- Real-time Memory Report at c_bands before calling an iterative solver
            96 MiB given to the printing process from OS
             0 MiB allocation reported by mallinfo(arena+hblkhd)
        228742 MiB available memory on the node where the printing process lives
------------------
     ethr =  4.45E-07,  avg # of iterations =  3.1

     total cpu time spent up to now is       32.9 secs

     total energy              =    -553.08008791 Ry
     estimated scf accuracy    <       0.00001062 Ry

     iteration #  7     ecut=    80.00 Ry     beta= 0.70
     Davidson diagonalization with overlap

---- Real-time Memory Report at c_bands before calling an iterative solver
            97 MiB given to the printing process from OS
             0 MiB allocation reported by mallinfo(arena+hblkhd)
        228740 MiB available memory on the node where the printing process lives
------------------
     ethr =  1.83E-08,  avg # of iterations =  2.0

     total cpu time spent up to now is       38.4 secs

     total energy              =    -553.08009138 Ry
     estimated scf accuracy    <       0.00000052 Ry

     iteration #  8     ecut=    80.00 Ry     beta= 0.70
     Davidson diagonalization with overlap

---- Real-time Memory Report at c_bands before calling an iterative solver
           100 MiB given to the printing process from OS
             0 MiB allocation reported by mallinfo(arena+hblkhd)
        228691 MiB available memory on the node where the printing process lives
------------------
     ethr =  8.95E-10,  avg # of iterations =  2.0

     total cpu time spent up to now is       43.1 secs

     total energy              =    -553.08009141 Ry
     estimated scf accuracy    <       0.00000008 Ry

     iteration #  9     ecut=    80.00 Ry     beta= 0.70
     Davidson diagonalization with overlap

---- Real-time Memory Report at c_bands before calling an iterative solver
           100 MiB given to the printing process from OS
             0 MiB allocation reported by mallinfo(arena+hblkhd)
        228707 MiB available memory on the node where the printing process lives
------------------
     ethr =  1.36E-10,  avg # of iterations =  2.0

     total cpu time spent up to now is       48.3 secs

     total energy              =    -553.08009143 Ry
     estimated scf accuracy    <          3.6E-09 Ry

     iteration # 10     ecut=    80.00 Ry     beta= 0.70
     Davidson diagonalization with overlap

---- Real-time Memory Report at c_bands before calling an iterative solver
           100 MiB given to the printing process from OS
             0 MiB allocation reported by mallinfo(arena+hblkhd)
        228692 MiB available memory on the node where the printing process lives
------------------
     ethr =  6.26E-12,  avg # of iterations =  2.4

     total cpu time spent up to now is       53.7 secs

     End of self-consistent calculation

          k = 0.0000 0.0000 0.0000 (  5409 PWs)   bands (ev):

   -79.3885 -79.3885 -79.3872 -79.3872 -46.2309 -46.2309 -46.2201 -46.2201
   -32.7683 -32.7683 -32.7543 -32.7543 -32.6278 -32.6278 -32.6168 -32.6168
    -7.0697  -7.0697  -5.9134  -5.9134  -4.9984  -4.9984  -4.7970  -4.7970
     4.2722   4.2722   4.5200   4.5200   6.0339   6.0339   6.1456   6.1456
     6.2579   6.2579   8.7899   8.7899   8.9426   8.9426   9.2003   9.2003
    10.3374  10.3374  10.9929  10.9929  10.9940  10.9940  11.0364  11.0364
    11.1972  11.1972  11.3754  11.3754  11.6526  11.6526  11.6755  11.6755
    12.0555  12.0555  14.6429  14.6429  15.0658  15.0658  17.6894  17.6894
    17.8986  17.8986  18.0466  18.0466  19.4517  19.4517

     occupation numbers 
     1.0000   1.0000   1.0000   1.0000   1.0000   1.0000   1.0000   1.0000
     1.0000   1.0000   1.0000   1.0000   1.0000   1.0000   1.0000   1.0000
     1.0000   1.0000   1.0000   1.0000   1.0000   1.0000   1.0000   1.0000
     1.0000   1.0000   1.0000   1.0000   1.0000   1.0000   1.0000   1.0000
     1.0000   1.0000   1.0000   1.0000   1.0000   1.0000   1.0000   1.0000
     1.0000   1.0000   1.0000   1.0000   1.0000   1.0000   1.0000   1.0000
     1.0000   1.0000   1.0000   1.0000   1.0000   1.0000   1.0000   1.0000
     1.0000   1.0000  -0.0000  -0.0000  -0.0000  -0.0000  -0.0000  -0.0000
    -0.0000  -0.0000  -0.0000  -0.0000  -0.0000  -0.0000

          k = 0.0000 0.0000 0.1781 (  5369 PWs)   bands (ev):

   -79.3881 -79.3881 -79.3869 -79.3869 -46.2321 -46.2321 -46.2222 -46.2222
   -32.7710 -32.7710 -32.7624 -32.7624 -32.6347 -32.6347 -32.6201 -32.6201
    -6.9284  -6.9284  -5.8405  -5.8405  -5.0643  -5.0643  -4.8854  -4.8854
     4.4782   4.4782   4.6685   4.6685   6.1571   6.1571   6.2311   6.2311
     6.4084   6.4084   8.2499   8.2499   9.0479   9.0479   9.3080   9.3080
     9.5403   9.5403  10.1260  10.1260  10.2343  10.2343  11.2885  11.2885
    11.6188  11.6188  11.6429  11.6429  11.7558  11.7558  12.3638  12.3638
    12.4507  12.4507  14.9193  14.9193  14.9707  14.9707  17.3277  17.3277
    17.6443  17.6443  18.3002  18.3002  19.1844  19.1844

     occupation numbers 
     1.0000   1.0000   1.0000   1.0000   1.0000   1.0000   1.0000   1.0000
     1.0000   1.0000   1.0000   1.0000   1.0000   1.0000   1.0000   1.0000
     1.0000   1.0000   1.0000   1.0000   1.0000   1.0000   1.0000   1.0000
     1.0000   1.0000   1.0000   1.0000   1.0000   1.0000   1.0000   1.0000
     1.0000   1.0000   1.0000   1.0000   1.0000   1.0000   1.0000   1.0000
     1.0000   1.0000   1.0000   1.0000   1.0000   1.0000   1.0000   1.0000
     1.0000   1.0000   1.0000   1.0000   1.0000   1.0000   1.0000   1.0000
     1.0000   1.0000  -0.0000  -0.0000  -0.0000  -0.0000  -0.0000  -0.0000
    -0.0000  -0.0000  -0.0000  -0.0000  -0.0000  -0.0000

          k = 0.0000 0.0000 0.3562 (  5381 PWs)   bands (ev):

   -79.3872 -79.3872 -79.3862 -79.3862 -46.2349 -46.2349 -46.2273 -46.2273
   -32.7832 -32.7832 -32.7822 -32.7822 -32.6460 -32.6460 -32.6272 -32.6272
    -6.5549  -6.5549  -5.6868  -5.6868  -5.2137  -5.2137  -5.0939  -5.0939
     5.0404   5.0404   5.0480   5.0480   6.4688   6.4688   6.4718   6.4718
     6.8569   6.8569   7.2537   7.2537   8.2936   8.2936   9.1176   9.1176
     9.3330   9.3330   9.4491   9.4491   9.7692   9.7692  10.5836  10.5836
    11.7972  11.7972  11.9519  11.9519  12.1483  12.1483  13.1857  13.1857
    13.2052  13.2052  14.5156  14.5156  15.6401  15.6401  16.6622  16.6622
    16.9542  16.9542  18.0008  18.0008  19.8619  19.8619

     occupation numbers 
     1.0000   1.0000   1.0000   1.0000   1.0000   1.0000   1.0000   1.0000
     1.0000   1.0000   1.0000   1.0000   1.0000   1.0000   1.0000   1.0000
     1.0000   1.0000   1.0000   1.0000   1.0000   1.0000   1.0000   1.0000
     1.0000   1.0000   1.0000   1.0000   1.0000   1.0000   1.0000   1.0000
     1.0000   1.0000   1.0000   1.0000   1.0000   1.0000   1.0000   1.0000
     1.0000   1.0000   1.0000   1.0000   1.0000   1.0000   1.0000   1.0000
     1.0000   1.0000   1.0000   1.0000   1.0000   1.0000   1.0000   1.0000
     1.0000   1.0000  -0.0000  -0.0000  -0.0000  -0.0000  -0.0000  -0.0000
    -0.0000  -0.0000  -0.0000  -0.0000  -0.0000  -0.0000

          k = 0.0000 0.0000 0.5343 (  5393 PWs)   bands (ev):

   -79.3861 -79.3861 -79.3856 -79.3856 -46.2371 -46.2371 -46.2330 -46.2330
   -32.8045 -32.8045 -32.8008 -32.8008 -32.6483 -32.6483 -32.6348 -32.6348
    -6.0900  -6.0900  -5.6091  -5.6091  -5.3451  -5.3451  -5.3004  -5.3004
     5.4617   5.4617   5.7076   5.7076   6.4527   6.4527   6.8542   6.8542
     6.9038   6.9038   7.3423   7.3423   7.5955   7.5955   8.4833   8.4833
     8.6123   8.6123   9.5868   9.5868   9.7626   9.7626   9.9639   9.9639
    11.7911  11.7911  12.1384  12.1384  12.4552  12.4552  13.5924  13.5924
    13.8301  13.8301  14.0991  14.0991  16.0586  16.0586  16.2257  16.2257
    16.5457  16.5457  17.0905  17.0905  21.4193  21.4193

     occupation numbers 
     1.0000   1.0000   1.0000   1.0000   1.0000   1.0000   1.0000   1.0000
     1.0000   1.0000   1.0000   1.0000   1.0000   1.0000   1.0000   1.0000
     1.0000   1.0000   1.0000   1.0000   1.0000   1.0000   1.0000   1.0000
     1.0000   1.0000   1.0000   1.0000   1.0000   1.0000   1.0000   1.0000
     1.0000   1.0000   1.0000   1.0000   1.0000   1.0000   1.0000   1.0000
     1.0000   1.0000   1.0000   1.0000   1.0000   1.0000   1.0000   1.0000
     1.0000   1.0000   1.0000   1.0000   1.0000   1.0000   1.0000   1.0000
     1.0325   1.0325  -0.0002  -0.0002  -0.0000  -0.0000  -0.0000  -0.0000
    -0.0000  -0.0000  -0.0000  -0.0000  -0.0000  -0.0000

          k = 0.0000 0.0000-0.7124 (  5314 PWs)   bands (ev):

   -79.3856 -79.3856 -79.3856 -79.3856 -46.2367 -46.2367 -46.2367 -46.2367
   -32.8119 -32.8119 -32.8119 -32.8119 -32.6425 -32.6425 -32.6425 -32.6425
    -5.7286  -5.7286  -5.7286  -5.7286  -5.3959  -5.3959  -5.3959  -5.3959
     5.7346   5.7346   5.7346   5.7346   6.7046   6.7046   6.7046   6.7046
     7.1023   7.1023   7.1023   7.1023   8.2041   8.2041   8.2041   8.2041
     8.5510   8.5510   8.5510   8.5510   9.9614   9.9614   9.9614   9.9614
    11.8947  11.8947  11.8947  11.8947  13.0787  13.0787  13.0787  13.0787
    14.1252  14.1252  14.1252  14.1252  16.0934  16.0934  16.0934  16.0934
    16.6081  16.6081  16.6081  16.6081  22.9265  22.9265

     occupation numbers 
     1.0000   1.0000   1.0000   1.0000   1.0000   1.0000   1.0000   1.0000
     1.0000   1.0000   1.0000   1.0000   1.0000   1.0000   1.0000   1.0000
     1.0000   1.0000   1.0000   1.0000   1.0000   1.0000   1.0000   1.0000
     1.0000   1.0000   1.0000   1.0000   1.0000   1.0000   1.0000   1.0000
     1.0000   1.0000   1.0000   1.0000   1.0000   1.0000   1.0000   1.0000
     1.0000   1.0000   1.0000   1.0000   1.0000   1.0000   1.0000   1.0000
     1.0000   1.0000   1.0000   1.0000   1.0000   1.0000   1.0000   1.0000
    -0.0000  -0.0000  -0.0000  -0.0000  -0.0000  -0.0000  -0.0000  -0.0000
    -0.0000  -0.0000  -0.0000  -0.0000  -0.0000  -0.0000

          k = 0.0000 0.2000 0.0000 (  5363 PWs)   bands (ev):

   -79.3884 -79.3884 -79.3873 -79.3873 -46.2299 -46.2299 -46.2212 -46.2212
   -32.7659 -32.7659 -32.7545 -32.7545 -32.6281 -32.6281 -32.6193 -32.6193
    -6.9208  -6.9208  -5.9022  -5.9022  -5.1253  -5.1253  -4.9334  -4.9334
     4.6420   4.6420   4.8039   4.8039   6.0880   6.0880   6.1781   6.1781
     6.5086   6.5086   8.4093   8.4093   8.5647   8.5647   8.7583   8.7583
     9.7172   9.7172   9.9940   9.9940  10.6542  10.6542  11.4598  11.4598
    11.5623  11.5623  11.6570  11.6570  11.9103  11.9103  12.0622  12.0622
    12.4740  12.4740  14.7594  14.7594  15.2853  15.2853  17.5412  17.5412
    17.8454  17.8454  18.5625  18.5625  19.0955  19.0955

     occupation numbers 
     1.0000   1.0000   1.0000   1.0000   1.0000   1.0000   1.0000   1.0000
     1.0000   1.0000   1.0000   1.0000   1.0000   1.0000   1.0000   1.0000
     1.0000   1.0000   1.0000   1.0000   1.0000   1.0000   1.0000   1.0000
     1.0000   1.0000   1.0000   1.0000   1.0000   1.0000   1.0000   1.0000
     1.0000   1.0000   1.0000   1.0000   1.0000   1.0000   1.0000   1.0000
     1.0000   1.0000   1.0000   1.0000   1.0000   1.0000   1.0000   1.0000
     1.0000   1.0000   1.0000   1.0000   1.0000   1.0000   1.0000   1.0000
     1.0000   1.0000  -0.0000  -0.0000  -0.0000  -0.0000  -0.0000  -0.0000
    -0.0000  -0.0000  -0.0000  -0.0000  -0.0000  -0.0000

          k = 0.0000 0.2000 0.1781 (  5370 PWs)   bands (ev):

   -79.3880 -79.3880 -79.3870 -79.3870 -46.2312 -46.2312 -46.2231 -46.2231
   -32.7709 -32.7709 -32.7606 -32.7606 -32.6350 -32.6350 -32.6221 -32.6221
    -6.7861  -6.7861  -5.8198  -5.8198  -5.1887  -5.1887  -5.0111  -5.0111
     4.8118   4.8118   4.9495   4.9495   6.1764   6.1764   6.2368   6.2368
     6.7147   6.7147   8.0681   8.0681   8.5060   8.5060   8.7696   8.7696
     9.0391   9.0391   9.9861   9.9861  10.2303  10.2303  11.2823  11.2823
    11.5705  11.5705  12.0468  12.0468  12.0701  12.0701  12.4038  12.4038
    12.7490  12.7490  14.6409  14.6409  15.5261  15.5261  17.0783  17.0783
    17.4087  17.4087  18.8671  18.8671  19.0874  19.0874

     occupation numbers 
     1.0000   1.0000   1.0000   1.0000   1.0000   1.0000   1.0000   1.0000
     1.0000   1.0000   1.0000   1.0000   1.0000   1.0000   1.0000   1.0000
     1.0000   1.0000   1.0000   1.0000   1.0000   1.0000   1.0000   1.0000
     1.0000   1.0000   1.0000   1.0000   1.0000   1.0000   1.0000   1.0000
     1.0000   1.0000   1.0000   1.0000   1.0000   1.0000   1.0000   1.0000
     1.0000   1.0000   1.0000   1.0000   1.0000   1.0000   1.0000   1.0000
     1.0000   1.0000   1.0000   1.0000   1.0000   1.0000   1.0000   1.0000
     1.0000   1.0000  -0.0000  -0.0000  -0.0000  -0.0000  -0.0000  -0.0000
    -0.0000  -0.0000  -0.0000  -0.0000  -0.0000  -0.0000

          k = 0.0000 0.2000 0.3562 (  5389 PWs)   bands (ev):

   -79.3871 -79.3871 -79.3863 -79.3863 -46.2342 -46.2342 -46.2280 -46.2280
   -32.7893 -32.7893 -32.7753 -32.7753 -32.6462 -32.6462 -32.6282 -32.6282
    -6.4370  -6.4370  -5.6514  -5.6514  -5.3232  -5.3232  -5.1849  -5.1849
     5.2407   5.2407   5.3179   5.3179   6.3997   6.3997   6.4907   6.4907
     7.0567   7.0567   7.3062   7.3062   7.7182   7.7182   8.8647   8.8647
     9.2125   9.2125   9.4784   9.4784   9.6048   9.6048  10.9227  10.9227
    11.4888  11.4888  12.1943  12.1943  12.3744  12.3744  12.9718  12.9718
    13.3483  13.3483  14.3532  14.3532  15.9613  15.9613  16.2782  16.2782
    16.8165  16.8165  18.3347  18.3347  20.2223  20.2223

     occupation numbers 
     1.0000   1.0000   1.0000   1.0000   1.0000   1.0000   1.0000   1.0000
     1.0000   1.0000   1.0000   1.0000   1.0000   1.0000   1.0000   1.0000
     1.0000   1.0000   1.0000   1.0000   1.0000   1.0000   1.0000   1.0000
     1.0000   1.0000   1.0000   1.0000   1.0000   1.0000   1.0000   1.0000
     1.0000   1.0000   1.0000   1.0000   1.0000   1.0000   1.0000   1.0000
     1.0000   1.0000   1.0000   1.0000   1.0000   1.0000   1.0000   1.0000
     1.0000   1.0000   1.0000   1.0000   1.0000   1.0000   1.0000   1.0000
     1.0000   1.0000  -0.0000  -0.0000  -0.0000  -0.0000  -0.0000  -0.0000
    -0.0000  -0.0000  -0.0000  -0.0000  -0.0000  -0.0000

          k = 0.0000 0.2000 0.5343 (  5374 PWs)   bands (ev):

   -79.3861 -79.3861 -79.3857 -79.3857 -46.2368 -46.2368 -46.2333 -46.2333
   -32.8115 -32.8115 -32.7938 -32.7938 -32.6496 -32.6496 -32.6337 -32.6337
    -6.0314  -6.0314  -5.6326  -5.6326  -5.3930  -5.3930  -5.2925  -5.2925
     5.5997   5.5997   5.7806   5.7806   6.0973   6.0973   6.5969   6.5969
     7.1808   7.1808   7.2542   7.2542   7.9705   7.9705   8.5432   8.5432
     8.8060   8.8060   9.4618   9.4618   9.6671   9.6671  10.0501  10.0501
    11.8400  11.8400  12.1087  12.1087  12.2191  12.2191  13.1212  13.1212
    13.8707  13.8707  14.2618  14.2618  15.6308  15.6308  15.7884  15.7884
    17.0182  17.0182  17.8065  17.8065  21.6262  21.6262

     occupation numbers 
     1.0000   1.0000   1.0000   1.0000   1.0000   1.0000   1.0000   1.0000
     1.0000   1.0000   1.0000   1.0000   1.0000   1.0000   1.0000   1.0000
     1.0000   1.0000   1.0000   1.0000   1.0000   1.0000   1.0000   1.0000
     1.0000   1.0000   1.0000   1.0000   1.0000   1.0000   1.0000   1.0000
     1.0000   1.0000   1.0000   1.0000   1.0000   1.0000   1.0000   1.0000
     1.0000   1.0000   1.0000   1.0000   1.0000   1.0000   1.0000   1.0000
     1.0000   1.0000   1.0000   1.0000   1.0000   1.0000   1.0000   1.0000
     0.8713   0.8713  -0.0000  -0.0000  -0.0000  -0.0000  -0.0000  -0.0000
    -0.0000  -0.0000  -0.0000  -0.0000  -0.0000  -0.0000

          k = 0.0000 0.2000-0.7124 (  5378 PWs)   bands (ev):

   -79.3856 -79.3856 -79.3856 -79.3856 -46.2373 -46.2373 -46.2361 -46.2361
   -32.8212 -32.8212 -32.8028 -32.8028 -32.6485 -32.6485 -32.6365 -32.6365
    -5.7731  -5.7731  -5.7567  -5.7567  -5.4092  -5.4092  -5.2967  -5.2967
     5.7007   5.7007   5.7800   5.7800   6.1682   6.1682   6.2878   6.2878
     7.5369   7.5369   7.6105   7.6105   8.1049   8.1049   8.3187   8.3187
     8.9580   8.9580   9.0199   9.0199   9.7101   9.7101   9.7487   9.7487
    11.8817  11.8817  11.8974  11.8974  12.5209  12.5209  12.7704  12.7704
    14.0643  14.0643  14.3805  14.3805  15.4633  15.4633  15.5434  15.5434
    17.3118  17.3118  17.5141  17.5141  22.9515  22.9515

     occupation numbers 
     1.0000   1.0000   1.0000   1.0000   1.0000   1.0000   1.0000   1.0000
     1.0000   1.0000   1.0000   1.0000   1.0000   1.0000   1.0000   1.0000
     1.0000   1.0000   1.0000   1.0000   1.0000   1.0000   1.0000   1.0000
     1.0000   1.0000   1.0000   1.0000   1.0000   1.0000   1.0000   1.0000
     1.0000   1.0000   1.0000   1.0000   1.0000   1.0000   1.0000   1.0000
     1.0000   1.0000   1.0000   1.0000   1.0000   1.0000   1.0000   1.0000
     1.0000   1.0000   1.0000   1.0000   1.0000   1.0000   1.0000   1.0000
    -0.0023  -0.0023  -0.0000  -0.0000  -0.0000  -0.0000  -0.0000  -0.0000
    -0.0000  -0.0000  -0.0000  -0.0000  -0.0000  -0.0000

          k = 0.0000 0.4000 0.0000 (  5370 PWs)   bands (ev):

   -79.3881 -79.3881 -79.3877 -79.3877 -46.2272 -46.2272 -46.2239 -46.2239
   -32.7605 -32.7605 -32.7561 -32.7561 -32.6275 -32.6275 -32.6242 -32.6242
    -6.5209  -6.5209  -6.0577  -6.0577  -5.2982  -5.2982  -5.1648  -5.1648
     5.4207   5.4207   5.4796   5.4796   6.1987   6.1987   6.2335   6.2335
     7.1973   7.1973   7.5494   7.5494   7.5835   7.5835   8.5277   8.5277
     8.6663   8.6663   9.0096   9.0096  10.6795  10.6795  11.0423  11.0423
    12.0119  12.0119  12.1075  12.1075  12.3611  12.3611  12.5101  12.5101
    13.2096  13.2096  14.0494  14.0494  16.6469  16.6469  17.3011  17.3011
    17.4783  17.4783  18.1038  18.1038  20.0246  20.0246

     occupation numbers 
     1.0000   1.0000   1.0000   1.0000   1.0000   1.0000   1.0000   1.0000
     1.0000   1.0000   1.0000   1.0000   1.0000   1.0000   1.0000   1.0000
     1.0000   1.0000   1.0000   1.0000   1.0000   1.0000   1.0000   1.0000
     1.0000   1.0000   1.0000   1.0000   1.0000   1.0000   1.0000   1.0000
     1.0000   1.0000   1.0000   1.0000   1.0000   1.0000   1.0000   1.0000
     1.0000   1.0000   1.0000   1.0000   1.0000   1.0000   1.0000   1.0000
     1.0000   1.0000   1.0000   1.0000   1.0000   1.0000   1.0000   1.0000
     1.0000   1.0000  -0.0052  -0.0052  -0.0000  -0.0000  -0.0000  -0.0000
    -0.0000  -0.0000  -0.0000  -0.0000  -0.0000  -0.0000

          k = 0.0000 0.4000 0.1781 (  5370 PWs)   bands (ev):

   -79.3877 -79.3877 -79.3873 -79.3873 -46.2287 -46.2287 -46.2256 -46.2256
   -32.7705 -32.7705 -32.7579 -32.7579 -32.6352 -32.6352 -32.6257 -32.6257
    -6.4028  -6.4028  -5.9511  -5.9511  -5.3632  -5.3632  -5.2243  -5.2243
     5.5470   5.5470   5.6486   5.6486   6.1942   6.1942   6.2470   6.2470
     7.3039   7.3039   7.6841   7.6841   7.8204   7.8204   8.0259   8.0259
     8.1717   8.1717   9.0386   9.0386  10.6442  10.6442  10.9986  10.9986
    11.9659  11.9659  12.1050  12.1050  12.5819  12.5819  12.7648  12.7648
    13.2841  13.2841  13.9974  13.9974  16.5367  16.5367  16.8090  16.8090
    17.1782  17.1782  18.1162  18.1162  20.4631  20.4631

     occupation numbers 
     1.0000   1.0000   1.0000   1.0000   1.0000   1.0000   1.0000   1.0000
     1.0000   1.0000   1.0000   1.0000   1.0000   1.0000   1.0000   1.0000
     1.0000   1.0000   1.0000   1.0000   1.0000   1.0000   1.0000   1.0000
     1.0000   1.0000   1.0000   1.0000   1.0000   1.0000   1.0000   1.0000
     1.0000   1.0000   1.0000   1.0000   1.0000   1.0000   1.0000   1.0000
     1.0000   1.0000   1.0000   1.0000   1.0000   1.0000   1.0000   1.0000
     1.0000   1.0000   1.0000   1.0000   1.0000   1.0000   1.0000   1.0000
     1.0000   1.0000  -0.0331  -0.0331  -0.0000  -0.0000  -0.0000  -0.0000
    -0.0000  -0.0000  -0.0000  -0.0000  -0.0000  -0.0000

          k = 0.0000 0.4000 0.3562 (  5373 PWs)   bands (ev):

   -79.3869 -79.3869 -79.3866 -79.3866 -46.2325 -46.2325 -46.2298 -46.2298
   -32.7929 -32.7929 -32.7703 -32.7703 -32.6463 -32.6463 -32.6300 -32.6300
    -6.1188  -6.1188  -5.7159  -5.7159  -5.4989  -5.4989  -5.3378  -5.3378
     5.7856   5.7856   5.8938   5.8938   6.4141   6.4141   6.5561   6.5561
     6.7630   6.7630   6.9329   6.9329   8.0075   8.0075   8.2363   8.2363
     8.4802   8.4802   9.1682   9.1682  10.1746  10.1746  10.6950  10.6950
    11.7523  11.7523  12.2944  12.2944  12.6009  12.6009  12.8836  12.8836
    13.5529  13.5529  14.0608  14.0608  15.7932  15.7932  15.9682  15.9682
    17.3869  17.3869  18.1703  18.1703  21.3313  21.3313

     occupation numbers 
     1.0000   1.0000   1.0000   1.0000   1.0000   1.0000   1.0000   1.0000
     1.0000   1.0000   1.0000   1.0000   1.0000   1.0000   1.0000   1.0000
     1.0000   1.0000   1.0000   1.0000   1.0000   1.0000   1.0000   1.0000
     1.0000   1.0000   1.0000   1.0000   1.0000   1.0000   1.0000   1.0000
     1.0000   1.0000   1.0000   1.0000   1.0000   1.0000   1.0000   1.0000
     1.0000   1.0000   1.0000   1.0000   1.0000   1.0000   1.0000   1.0000
     1.0000   1.0000   1.0000   1.0000   1.0000   1.0000   1.0000   1.0000
     1.0000   1.0000  -0.0028  -0.0028  -0.0000  -0.0000  -0.0000  -0.0000
    -0.0000  -0.0000  -0.0000  -0.0000  -0.0000  -0.0000

          k = 0.0000 0.4000 0.5343 (  5372 PWs)   bands (ev):

   -79.3860 -79.3860 -79.3858 -79.3858 -46.2361 -46.2361 -46.2340 -46.2340
   -32.8168 -32.8168 -32.7886 -32.7886 -32.6514 -32.6514 -32.6323 -32.6323
    -5.8849  -5.8849  -5.7258  -5.7258  -5.4462  -5.4462  -5.3007  -5.3007
     5.7381   5.7381   5.8151   5.8151   6.0755   6.0755   6.2494   6.2494
     7.1276   7.1276   7.5135   7.5135   8.1596   8.1596   8.7376   8.7376
     8.9291   8.9291   9.0613   9.0613   9.8317   9.8317  10.7003  10.7003
    11.2177  11.2177  11.9543  11.9543  12.1980  12.1980  12.5516  12.5516
    13.9714  13.9714  14.3611  14.3611  15.1999  15.1999  15.3511  15.3511
    17.8502  17.8502  18.2678  18.2678  22.2832  22.2832

     occupation numbers 
     1.0000   1.0000   1.0000   1.0000   1.0000   1.0000   1.0000   1.0000
     1.0000   1.0000   1.0000   1.0000   1.0000   1.0000   1.0000   1.0000
     1.0000   1.0000   1.0000   1.0000   1.0000   1.0000   1.0000   1.0000
     1.0000   1.0000   1.0000   1.0000   1.0000   1.0000   1.0000   1.0000
     1.0000   1.0000   1.0000   1.0000   1.0000   1.0000   1.0000   1.0000
     1.0000   1.0000   1.0000   1.0000   1.0000   1.0000   1.0000   1.0000
     1.0000   1.0000   1.0000   1.0000   1.0000   1.0000   1.0000   1.0000
    -0.0227  -0.0227  -0.0000  -0.0000  -0.0000  -0.0000  -0.0000  -0.0000
    -0.0000  -0.0000  -0.0000  -0.0000  -0.0000  -0.0000

          k = 0.0000 0.4000-0.7124 (  5358 PWs)   bands (ev):

   -79.3856 -79.3856 -79.3856 -79.3856 -46.2376 -46.2376 -46.2358 -46.2358
   -32.8271 -32.8271 -32.7974 -32.7974 -32.6521 -32.6521 -32.6328 -32.6328
    -5.8149  -5.8149  -5.8125  -5.8125  -5.3718  -5.3718  -5.2142  -5.2142
     5.4898   5.4898   5.5410   5.5410   6.1776   6.1776   6.2067   6.2067
     7.5688   7.5688   8.0195   8.0195   8.3542   8.3542   8.4865   8.4865
     9.0535   9.0535   9.0852   9.0852  10.1683  10.1683  10.2054  10.2054
    11.4210  11.4210  11.4744  11.4744  11.9010  11.9010  12.2679  12.2679
    14.1489  14.1489  14.4972  14.4972  15.0685  15.0685  15.1139  15.1139
    18.1056  18.1056  18.2825  18.2825  23.0883  23.0902

     occupation numbers 
     1.0000   1.0000   1.0000   1.0000   1.0000   1.0000   1.0000   1.0000
     1.0000   1.0000   1.0000   1.0000   1.0000   1.0000   1.0000   1.0000
     1.0000   1.0000   1.0000   1.0000   1.0000   1.0000   1.0000   1.0000
     1.0000   1.0000   1.0000   1.0000   1.0000   1.0000   1.0000   1.0000
     1.0000   1.0000   1.0000   1.0000   1.0000   1.0000   1.0000   1.0000
     1.0000   1.0000   1.0000   1.0000   1.0000   1.0000   1.0000   1.0000
     1.0000   1.0000   1.0000   1.0000   1.0000   1.0000   1.0000   1.0000
    -0.0000  -0.0000  -0.0000  -0.0000  -0.0000  -0.0000  -0.0000  -0.0000
    -0.0000  -0.0000  -0.0000  -0.0000  -0.0000  -0.0000

          k = 0.2000 0.2000 0.0000 (  5377 PWs)   bands (ev):

   -79.3883 -79.3883 -79.3874 -79.3874 -46.2290 -46.2290 -46.2220 -46.2220
   -32.7646 -32.7646 -32.7549 -32.7549 -32.6281 -32.6281 -32.6205 -32.6205
    -6.8097  -6.8097  -5.9241  -5.9241  -5.2589  -5.2589  -4.9302  -4.9302
     4.4010   4.4010   5.4732   5.4732   6.0604   6.0604   6.2327   6.2327
     6.7404   6.7404   7.5138   7.5138   8.6101   8.6101   8.9640   8.9640
     9.7355   9.7355  10.0204  10.0204  10.2559  10.2559  11.1506  11.1506
    11.2973  11.2973  11.6605  11.6605  12.1239  12.1239  12.4153  12.4153
    12.8411  12.8411  14.6043  14.6043  15.4313  15.4313  17.3642  17.3642
    17.8773  17.8773  18.7066  18.7066  19.2637  19.2637

     occupation numbers 
     1.0000   1.0000   1.0000   1.0000   1.0000   1.0000   1.0000   1.0000
     1.0000   1.0000   1.0000   1.0000   1.0000   1.0000   1.0000   1.0000
     1.0000   1.0000   1.0000   1.0000   1.0000   1.0000   1.0000   1.0000
     1.0000   1.0000   1.0000   1.0000   1.0000   1.0000   1.0000   1.0000
     1.0000   1.0000   1.0000   1.0000   1.0000   1.0000   1.0000   1.0000
     1.0000   1.0000   1.0000   1.0000   1.0000   1.0000   1.0000   1.0000
     1.0000   1.0000   1.0000   1.0000   1.0000   1.0000   1.0000   1.0000
     1.0000   1.0000  -0.0000  -0.0000  -0.0000  -0.0000  -0.0000  -0.0000
    -0.0000  -0.0000  -0.0000  -0.0000  -0.0000  -0.0000

          k = 0.2000 0.2000 0.1781 (  5378 PWs)   bands (ev):

   -79.3879 -79.3879 -79.3871 -79.3871 -46.2304 -46.2304 -46.2239 -46.2239
   -32.7707 -32.7707 -32.7601 -32.7601 -32.6348 -32.6348 -32.6234 -32.6234
    -6.6796  -6.6796  -5.8299  -5.8299  -5.3230  -5.3230  -5.0075  -5.0075
     4.5726   4.5726   5.6091   5.6091   6.0905   6.0905   6.2730   6.2730
     6.9571   6.9571   7.7288   7.7288   7.9531   7.9531   8.9414   8.9414
     9.0941   9.0941   9.9866   9.9866  10.2862  10.2862  10.8989  10.8989
    11.5372  11.5372  11.8015  11.8015  12.2540  12.2540  12.6689  12.6689
    13.0471  13.0471  14.4759  14.4759  15.6945  15.6945  16.8220  16.8220
    17.5086  17.5086  18.6030  18.6030  19.6825  19.6825

     occupation numbers 
     1.0000   1.0000   1.0000   1.0000   1.0000   1.0000   1.0000   1.0000
     1.0000   1.0000   1.0000   1.0000   1.0000   1.0000   1.0000   1.0000
     1.0000   1.0000   1.0000   1.0000   1.0000   1.0000   1.0000   1.0000
     1.0000   1.0000   1.0000   1.0000   1.0000   1.0000   1.0000   1.0000
     1.0000   1.0000   1.0000   1.0000   1.0000   1.0000   1.0000   1.0000
     1.0000   1.0000   1.0000   1.0000   1.0000   1.0000   1.0000   1.0000
     1.0000   1.0000   1.0000   1.0000   1.0000   1.0000   1.0000   1.0000
     1.0000   1.0000  -0.0000  -0.0000  -0.0000  -0.0000  -0.0000  -0.0000
    -0.0000  -0.0000  -0.0000  -0.0000  -0.0000  -0.0000

          k = 0.2000 0.2000 0.3562 (  5365 PWs)   bands (ev):

   -79.3870 -79.3870 -79.3864 -79.3864 -46.2336 -46.2336 -46.2286 -46.2286
   -32.7902 -32.7902 -32.7741 -32.7741 -32.6457 -32.6457 -32.6292 -32.6292
    -6.3467  -6.3467  -5.6255  -5.6255  -5.4558  -5.4558  -5.1855  -5.1855
     5.0303   5.0303   5.8410   5.8410   6.2270   6.2270   6.6196   6.6196
     6.8124   6.8124   7.4908   7.4908   7.8352   7.8352   8.3158   8.3158
     9.1174   9.1174   9.5497   9.5497   9.9179   9.9179  11.0325  11.0325
    11.3403  11.3403  11.9890  11.9890  12.5486  12.5486  12.9567  12.9567
    13.4562  13.4562  14.2307  14.2307  15.8218  15.8218  16.3289  16.3289
    16.8776  16.8776  18.2987  18.2987  20.6308  20.6308

     occupation numbers 
     1.0000   1.0000   1.0000   1.0000   1.0000   1.0000   1.0000   1.0000
     1.0000   1.0000   1.0000   1.0000   1.0000   1.0000   1.0000   1.0000
     1.0000   1.0000   1.0000   1.0000   1.0000   1.0000   1.0000   1.0000
     1.0000   1.0000   1.0000   1.0000   1.0000   1.0000   1.0000   1.0000
     1.0000   1.0000   1.0000   1.0000   1.0000   1.0000   1.0000   1.0000
     1.0000   1.0000   1.0000   1.0000   1.0000   1.0000   1.0000   1.0000
     1.0000   1.0000   1.0000   1.0000   1.0000   1.0000   1.0000   1.0000
     1.0000   1.0000  -0.0000  -0.0000  -0.0000  -0.0000  -0.0000  -0.0000
    -0.0000  -0.0000  -0.0000  -0.0000  -0.0000  -0.0000

          k = 0.2000 0.2000 0.5343 (  5355 PWs)   bands (ev):

   -79.3861 -79.3861 -79.3857 -79.3857 -46.2365 -46.2365 -46.2336 -46.2336
   -32.8128 -32.8128 -32.7926 -32.7926 -32.6497 -32.6497 -32.6338 -32.6338
    -5.9784  -5.9784  -5.6480  -5.6480  -5.4184  -5.4184  -5.3027  -5.3027
     5.5825   5.5825   5.8423   5.8423   6.0697   6.0697   6.4792   6.4792
     6.8353   6.8353   7.5770   7.5770   8.1622   8.1622   8.5727   8.5727
     8.7600   8.7600   9.3775   9.3775   9.7182   9.7182  10.3971  10.3971
    11.6404  11.6404  12.0192  12.0192  12.2816  12.2816  13.2215  13.2215
    13.4529  13.4529  14.3876  14.3876  15.2253  15.2253  16.2381  16.2381
    16.8487  16.8487  18.0491  18.0491  21.8217  21.8217

     occupation numbers 
     1.0000   1.0000   1.0000   1.0000   1.0000   1.0000   1.0000   1.0000
     1.0000   1.0000   1.0000   1.0000   1.0000   1.0000   1.0000   1.0000
     1.0000   1.0000   1.0000   1.0000   1.0000   1.0000   1.0000   1.0000
     1.0000   1.0000   1.0000   1.0000   1.0000   1.0000   1.0000   1.0000
     1.0000   1.0000   1.0000   1.0000   1.0000   1.0000   1.0000   1.0000
     1.0000   1.0000   1.0000   1.0000   1.0000   1.0000   1.0000   1.0000
     1.0000   1.0000   1.0000   1.0000   1.0000   1.0000   1.0000   1.0000
     1.0000   1.0000  -0.0000  -0.0000  -0.0000  -0.0000  -0.0000  -0.0000
    -0.0000  -0.0000  -0.0000  -0.0000  -0.0000  -0.0000

          k = 0.2000 0.2000-0.7124 (  5378 PWs)   bands (ev):

   -79.3856 -79.3856 -79.3856 -79.3856 -46.2374 -46.2374 -46.2360 -46.2360
   -32.8226 -32.8226 -32.8016 -32.8016 -32.6494 -32.6494 -32.6357 -32.6357
    -5.8249  -5.8249  -5.6823  -5.6823  -5.4584  -5.4584  -5.2596  -5.2596
     5.5471   5.5471   5.9304   5.9304   6.0916   6.0916   6.4392   6.4392
     6.6567   6.6567   8.0568   8.0568   8.3204   8.3204   8.8003   8.8003
     8.8740   8.8740   9.0660   9.0660   9.4834   9.4834  10.0775  10.0775
    11.8028  11.8028  11.8852  11.8852  12.2100  12.2100  12.9588  12.9588
    13.6321  13.6321  14.5463  14.5463  15.0149  15.0149  16.1055  16.1055
    16.8904  16.8904  18.0205  18.0205  22.9217  22.9219

     occupation numbers 
     1.0000   1.0000   1.0000   1.0000   1.0000   1.0000   1.0000   1.0000
     1.0000   1.0000   1.0000   1.0000   1.0000   1.0000   1.0000   1.0000
     1.0000   1.0000   1.0000   1.0000   1.0000   1.0000   1.0000   1.0000
     1.0000   1.0000   1.0000   1.0000   1.0000   1.0000   1.0000   1.0000
     1.0000   1.0000   1.0000   1.0000   1.0000   1.0000   1.0000   1.0000
     1.0000   1.0000   1.0000   1.0000   1.0000   1.0000   1.0000   1.0000
     1.0000   1.0000   1.0000   1.0000   1.0000   1.0000   1.0000   1.0000
     1.0000   1.0000  -0.0000  -0.0000  -0.0000  -0.0000  -0.0000  -0.0000
    -0.0000  -0.0000  -0.0000  -0.0000  -0.0000  -0.0000

          k = 0.2000 0.4000 0.0000 (  5398 PWs)   bands (ev):

   -79.3880 -79.3880 -79.3877 -79.3877 -46.2269 -46.2269 -46.2242 -46.2242
   -32.7611 -32.7611 -32.7571 -32.7571 -32.6268 -32.6268 -32.6236 -32.6236
    -6.5127  -6.5127  -6.1436  -6.1436  -5.2633  -5.2633  -5.0718  -5.0718
     4.7212   4.7212   5.4474   5.4474   6.0944   6.0944   6.2008   6.2008
     7.3624   7.3624   7.6250   7.6250   8.3847   8.3847   8.7597   8.7597
     9.1134   9.1134   9.3007   9.3007  10.2011  10.2011  10.7530  10.7530
    11.6630  11.6630  11.9590  11.9590  12.1494  12.1494  12.4591  12.4591
    13.4614  13.4614  14.1179  14.1179  16.3066  16.3066  17.3709  17.3709
    17.5087  17.5087  17.8710  17.8710  20.6008  20.6009

     occupation numbers 
     1.0000   1.0000   1.0000   1.0000   1.0000   1.0000   1.0000   1.0000
     1.0000   1.0000   1.0000   1.0000   1.0000   1.0000   1.0000   1.0000
     1.0000   1.0000   1.0000   1.0000   1.0000   1.0000   1.0000   1.0000
     1.0000   1.0000   1.0000   1.0000   1.0000   1.0000   1.0000   1.0000
     1.0000   1.0000   1.0000   1.0000   1.0000   1.0000   1.0000   1.0000
     1.0000   1.0000   1.0000   1.0000   1.0000   1.0000   1.0000   1.0000
     1.0000   1.0000   1.0000   1.0000   1.0000   1.0000   1.0000   1.0000
     1.0000   1.0000  -0.0000  -0.0000  -0.0000  -0.0000  -0.0000  -0.0000
    -0.0000  -0.0000  -0.0000  -0.0000  -0.0000  -0.0000

          k = 0.2000 0.4000 0.1781 (  5383 PWs)   bands (ev):

   -79.3877 -79.3877 -79.3874 -79.3874 -46.2285 -46.2285 -46.2259 -46.2259
   -32.7701 -32.7701 -32.7596 -32.7596 -32.6338 -32.6338 -32.6260 -32.6260
    -6.3953  -6.3953  -6.0379  -6.0379  -5.3249  -5.3249  -5.1388  -5.1388
     4.8751   4.8751   5.6030   5.6030   6.1073   6.1073   6.1831   6.1831
     7.5413   7.5413   7.8464   7.8464   8.0048   8.0048   8.4697   8.4697
     8.8152   8.8152   9.2545   9.2545  10.2434  10.2434  10.5813  10.5813
    11.8385  11.8385  12.0111  12.0111  12.3697  12.3697  12.7224  12.7224
    13.4381  13.4381  14.0110  14.0110  16.4056  16.4056  16.8541  16.8541
    17.3121  17.3121  17.8205  17.8205  20.9359  20.9359

     occupation numbers 
     1.0000   1.0000   1.0000   1.0000   1.0000   1.0000   1.0000   1.0000
     1.0000   1.0000   1.0000   1.0000   1.0000   1.0000   1.0000   1.0000
     1.0000   1.0000   1.0000   1.0000   1.0000   1.0000   1.0000   1.0000
     1.0000   1.0000   1.0000   1.0000   1.0000   1.0000   1.0000   1.0000
     1.0000   1.0000   1.0000   1.0000   1.0000   1.0000   1.0000   1.0000
     1.0000   1.0000   1.0000   1.0000   1.0000   1.0000   1.0000   1.0000
     1.0000   1.0000   1.0000   1.0000   1.0000   1.0000   1.0000   1.0000
     1.0000   1.0000  -0.0249  -0.0249  -0.0000  -0.0000  -0.0000  -0.0000
    -0.0000  -0.0000  -0.0000  -0.0000  -0.0000  -0.0000

          k = 0.2000 0.4000 0.3562 (  5371 PWs)   bands (ev):

   -79.3868 -79.3868 -79.3866 -79.3866 -46.2322 -46.2322 -46.2300 -46.2300
   -32.7913 -32.7913 -32.7726 -32.7726 -32.6446 -32.6446 -32.6312 -32.6312
    -6.1076  -6.1076  -5.8011  -5.8011  -5.4493  -5.4493  -5.2838  -5.2838
     5.2603   5.2603   5.8360   5.8360   6.2124   6.2124   6.4121   6.4121
     6.8866   6.8866   7.4659   7.4659   8.1563   8.1563   8.4511   8.4511
     8.9688   8.9688   9.1755   9.1755   9.9769   9.9769  10.4637  10.4637
    11.8759  11.8759  12.1843  12.1843  12.5291  12.5291  12.8263  12.8263
    13.5244  13.5244  13.9380  13.9380  15.8708  15.8708  16.3141  16.3141
    17.2065  17.2065  17.9239  17.9239  21.6187  21.6187

     occupation numbers 
     1.0000   1.0000   1.0000   1.0000   1.0000   1.0000   1.0000   1.0000
     1.0000   1.0000   1.0000   1.0000   1.0000   1.0000   1.0000   1.0000
     1.0000   1.0000   1.0000   1.0000   1.0000   1.0000   1.0000   1.0000
     1.0000   1.0000   1.0000   1.0000   1.0000   1.0000   1.0000   1.0000
     1.0000   1.0000   1.0000   1.0000   1.0000   1.0000   1.0000   1.0000
     1.0000   1.0000   1.0000   1.0000   1.0000   1.0000   1.0000   1.0000
     1.0000   1.0000   1.0000   1.0000   1.0000   1.0000   1.0000   1.0000
     1.0000   1.0000   0.1371   0.1371  -0.0000  -0.0000  -0.0000  -0.0000
    -0.0000  -0.0000  -0.0000  -0.0000  -0.0000  -0.0000

          k = 0.2000 0.4000 0.5343 (  5368 PWs)   bands (ev):

   -79.3860 -79.3860 -79.3858 -79.3858 -46.2360 -46.2360 -46.2342 -46.2342
   -32.8145 -32.8145 -32.7910 -32.7910 -32.6498 -32.6498 -32.6340 -32.6340
    -5.8492  -5.8492  -5.7167  -5.7167  -5.4544  -5.4544  -5.3242  -5.3242
     5.6297   5.6297   5.7454   5.7454   6.1330   6.1330   6.2484   6.2484
     6.9133   6.9133   7.4119   7.4119   8.3530   8.3530   8.5948   8.5948
     8.9866   8.9866   9.3479   9.3479   9.9390   9.9390  10.6997  10.6997
    11.4311  11.4311  12.0377  12.0377  12.2200  12.2200  12.5985  12.5985
    13.7068  13.7068  14.2341  14.2341  15.2619  15.2619  15.7676  15.7676
    17.5173  17.5173  18.0804  18.0804  22.3916  22.3916

     occupation numbers 
     1.0000   1.0000   1.0000   1.0000   1.0000   1.0000   1.0000   1.0000
     1.0000   1.0000   1.0000   1.0000   1.0000   1.0000   1.0000   1.0000
     1.0000   1.0000   1.0000   1.0000   1.0000   1.0000   1.0000   1.0000
     1.0000   1.0000   1.0000   1.0000   1.0000   1.0000   1.0000   1.0000
     1.0000   1.0000   1.0000   1.0000   1.0000   1.0000   1.0000   1.0000
     1.0000   1.0000   1.0000   1.0000   1.0000   1.0000   1.0000   1.0000
     1.0000   1.0000   1.0000   1.0000   1.0000   1.0000   1.0000   1.0000
     1.0002   1.0002  -0.0000  -0.0000  -0.0000  -0.0000  -0.0000  -0.0000
    -0.0000  -0.0000  -0.0000  -0.0000  -0.0000  -0.0000

          k = 0.2000 0.4000-0.7124 (  5346 PWs)   bands (ev):

   -79.3856 -79.3856 -79.3856 -79.3856 -46.2375 -46.2375 -46.2359 -46.2359
   -32.8246 -32.8246 -32.7998 -32.7998 -32.6507 -32.6507 -32.6346 -32.6346
    -5.8076  -5.8076  -5.7255  -5.7255  -5.4221  -5.4221  -5.2524  -5.2524
     5.4896   5.4896   5.7432   5.7432   6.0588   6.0588   6.2050   6.2050
     7.0885   7.0885   7.8245   7.8245   8.2875   8.2875   8.3869   8.3869
     9.1513   9.1513   9.5406   9.5406  10.0532  10.0532  10.6545  10.6545
    11.3230  11.3230  11.8506  11.8506  11.9584  11.9584  12.3789  12.3789
    13.8388  13.8388  14.3886  14.3886  15.0653  15.0653  15.5588  15.5588
    17.6299  17.6299  18.1734  18.1734  23.0732  23.0734

     occupation numbers 
     1.0000   1.0000   1.0000   1.0000   1.0000   1.0000   1.0000   1.0000
     1.0000   1.0000   1.0000   1.0000   1.0000   1.0000   1.0000   1.0000
     1.0000   1.0000   1.0000   1.0000   1.0000   1.0000   1.0000   1.0000
     1.0000   1.0000   1.0000   1.0000   1.0000   1.0000   1.0000   1.0000
     1.0000   1.0000   1.0000   1.0000   1.0000   1.0000   1.0000   1.0000
     1.0000   1.0000   1.0000   1.0000   1.0000   1.0000   1.0000   1.0000
     1.0000   1.0000   1.0000   1.0000   1.0000   1.0000   1.0000   1.0000
     1.0218   1.0218  -0.0000  -0.0000  -0.0000  -0.0000  -0.0000  -0.0000
    -0.0000  -0.0000  -0.0000  -0.0000  -0.0000  -0.0000

          k = 0.4000 0.4000 0.0000 (  5386 PWs)   bands (ev):

   -79.3879 -79.3879 -79.3878 -79.3878 -46.2261 -46.2261 -46.2251 -46.2251
   -32.7612 -32.7612 -32.7595 -32.7595 -32.6249 -32.6249 -32.6234 -32.6234
    -6.4552  -6.4552  -6.3183  -6.3183  -5.1177  -5.1177  -5.0180  -5.0180
     4.4043   4.4043   4.7188   4.7188   6.0204   6.0204   6.0712   6.0712
     8.0117   8.0117   8.5153   8.5153   8.7756   8.7756   9.1855   9.1855
     9.4927   9.4927   9.6104   9.6104   9.7950   9.7950  10.4901  10.4901
    11.1522  11.1522  11.5574  11.5574  11.8231  11.8231  12.0498  12.0498
    13.8750  13.8750  14.1099  14.1099  16.1361  16.1361  16.6744  16.6744
    17.7471  17.7471  17.9387  17.9387  21.6432  21.6432

     occupation numbers 
     1.0000   1.0000   1.0000   1.0000   1.0000   1.0000   1.0000   1.0000
     1.0000   1.0000   1.0000   1.0000   1.0000   1.0000   1.0000   1.0000
     1.0000   1.0000   1.0000   1.0000   1.0000   1.0000   1.0000   1.0000
     1.0000   1.0000   1.0000   1.0000   1.0000   1.0000   1.0000   1.0000
     1.0000   1.0000   1.0000   1.0000   1.0000   1.0000   1.0000   1.0000
     1.0000   1.0000   1.0000   1.0000   1.0000   1.0000   1.0000   1.0000
     1.0000   1.0000   1.0000   1.0000   1.0000   1.0000   1.0000   1.0000
     0.8350   0.8350  -0.0001  -0.0001  -0.0000  -0.0000  -0.0000  -0.0000
    -0.0000  -0.0000  -0.0000  -0.0000  -0.0000  -0.0000

          k = 0.4000 0.4000 0.1781 (  5398 PWs)   bands (ev):

   -79.3876 -79.3876 -79.3875 -79.3875 -46.2277 -46.2277 -46.2267 -46.2267
   -32.7686 -32.7686 -32.7632 -32.7632 -32.6310 -32.6310 -32.6271 -32.6271
    -6.3409  -6.3409  -6.2094  -6.2094  -5.1845  -5.1845  -5.0899  -5.0899
     4.5699   4.5699   4.8732   4.8732   6.0230   6.0230   6.0814   6.0814
     8.1875   8.1875   8.4398   8.4398   8.7894   8.7894   8.8975   8.8975
     9.0324   9.0324   9.6134   9.6134   9.7086   9.7086   9.9726   9.9726
    11.5223  11.5223  11.8515  11.8515  12.1644  12.1644  12.3129  12.3129
    13.7450  13.7450  13.9514  13.9514  16.3396  16.3396  16.7516  16.7516
    17.4104  17.4104  17.6045  17.6045  21.8628  21.8628

     occupation numbers 
     1.0000   1.0000   1.0000   1.0000   1.0000   1.0000   1.0000   1.0000
     1.0000   1.0000   1.0000   1.0000   1.0000   1.0000   1.0000   1.0000
     1.0000   1.0000   1.0000   1.0000   1.0000   1.0000   1.0000   1.0000
     1.0000   1.0000   1.0000   1.0000   1.0000   1.0000   1.0000   1.0000
     1.0000   1.0000   1.0000   1.0000   1.0000   1.0000   1.0000   1.0000
     1.0000   1.0000   1.0000   1.0000   1.0000   1.0000   1.0000   1.0000
     1.0000   1.0000   1.0000   1.0000   1.0000   1.0000   1.0000   1.0000
     1.0022   1.0022   0.0456   0.0456  -0.0000  -0.0000  -0.0000  -0.0000
    -0.0000  -0.0000  -0.0000  -0.0000  -0.0000  -0.0000

          k = 0.4000 0.4000 0.3562 (  5366 PWs)   bands (ev):

   -79.3868 -79.3868 -79.3867 -79.3867 -46.2316 -46.2316 -46.2307 -46.2307
   -32.7875 -32.7875 -32.7777 -32.7777 -32.6409 -32.6409 -32.6341 -32.6341
    -6.0564  -6.0564  -5.9470  -5.9470  -5.3345  -5.3345  -5.2558  -5.2558
     5.0072   5.0072   5.2526   5.2526   6.0808   6.0808   6.1634   6.1634
     7.4978   7.4978   7.8332   7.8332   8.5537   8.5537   8.9646   8.9646
     9.1434   9.1434   9.3724   9.3724   9.6311   9.6311  10.0996  10.0996
    11.8872  11.8872  12.1353  12.1353  12.5170  12.5170  12.7166  12.7166
    13.4555  13.4555  13.6702  13.6702  16.2968  16.2968  16.6303  16.6303
    17.0221  17.0221  17.3938  17.3938  22.2710  22.2711

     occupation numbers 
     1.0000   1.0000   1.0000   1.0000   1.0000   1.0000   1.0000   1.0000
     1.0000   1.0000   1.0000   1.0000   1.0000   1.0000   1.0000   1.0000
     1.0000   1.0000   1.0000   1.0000   1.0000   1.0000   1.0000   1.0000
     1.0000   1.0000   1.0000   1.0000   1.0000   1.0000   1.0000   1.0000
     1.0000   1.0000   1.0000   1.0000   1.0000   1.0000   1.0000   1.0000
     1.0000   1.0000   1.0000   1.0000   1.0000   1.0000   1.0000   1.0000
     1.0000   1.0000   1.0000   1.0000   1.0000   1.0000   1.0000   1.0000
     1.0000   1.0000   1.0000   1.0000  -0.0000  -0.0000  -0.0000  -0.0000
    -0.0000  -0.0000  -0.0000  -0.0000  -0.0000  -0.0000

          k = 0.4000 0.4000 0.5343 (  5354 PWs)   bands (ev):

   -79.3859 -79.3859 -79.3859 -79.3859 -46.2355 -46.2355 -46.2347 -46.2347
   -32.8091 -32.8091 -32.7967 -32.7967 -32.6461 -32.6461 -32.6379 -32.6379
    -5.7721  -5.7721  -5.7168  -5.7168  -5.4561  -5.4561  -5.3781  -5.3781
     5.5146   5.5146   5.5995   5.5995   6.1203   6.1203   6.2560   6.2560
     6.8674   6.8674   7.1642   7.1642   8.4140   8.4140   8.5197   8.5197
     9.3124   9.3124   9.5342   9.5342  10.2009  10.2009  10.5739  10.5739
    11.9096  11.9096  12.0171  12.0171  12.3360  12.3360  12.9105  12.9105
    13.2288  13.2288  13.8133  13.8133  15.7551  15.7551  16.2353  16.2353
    17.0592  17.0592  17.5406  17.5406  22.7075  22.7075

     occupation numbers 
     1.0000   1.0000   1.0000   1.0000   1.0000   1.0000   1.0000   1.0000
     1.0000   1.0000   1.0000   1.0000   1.0000   1.0000   1.0000   1.0000
     1.0000   1.0000   1.0000   1.0000   1.0000   1.0000   1.0000   1.0000
     1.0000   1.0000   1.0000   1.0000   1.0000   1.0000   1.0000   1.0000
     1.0000   1.0000   1.0000   1.0000   1.0000   1.0000   1.0000   1.0000
     1.0000   1.0000   1.0000   1.0000   1.0000   1.0000   1.0000   1.0000
     1.0000   1.0000   1.0000   1.0000   1.0000   1.0000   1.0000   1.0000
     1.0000   1.0000   1.0336   1.0336  -0.0000  -0.0000  -0.0000  -0.0000
    -0.0000  -0.0000  -0.0000  -0.0000  -0.0000  -0.0000

          k = 0.4000 0.4000-0.7124 (  5370 PWs)   bands (ev):

   -79.3856 -79.3856 -79.3856 -79.3856 -46.2371 -46.2371 -46.2363 -46.2363
   -32.8187 -32.8187 -32.8057 -32.8057 -32.6472 -32.6472 -32.6387 -32.6387
    -5.7180  -5.7180  -5.6132  -5.6132  -5.5090  -5.5090  -5.3582  -5.3582
     5.6313   5.6313   5.8463   5.8463   5.9988   5.9988   6.3440   6.3440
     6.5672   6.5672   7.1990   7.1990   8.2098   8.2098   8.3140   8.3140
     9.5379   9.5379   9.6770   9.6770  10.4414  10.4414  10.7533  10.7533
    11.7842  11.7842  11.9313  11.9313  12.1754  12.1754  12.7148  12.7148
    13.3660  13.3660  13.9394  13.9394  15.5387  15.5387  16.0788  16.0788
    17.0411  17.0411  17.6035  17.6035  23.0541  23.0542

     occupation numbers 
     1.0000   1.0000   1.0000   1.0000   1.0000   1.0000   1.0000   1.0000
     1.0000   1.0000   1.0000   1.0000   1.0000   1.0000   1.0000   1.0000
     1.0000   1.0000   1.0000   1.0000   1.0000   1.0000   1.0000   1.0000
     1.0000   1.0000   1.0000   1.0000   1.0000   1.0000   1.0000   1.0000
     1.0000   1.0000   1.0000   1.0000   1.0000   1.0000   1.0000   1.0000
     1.0000   1.0000   1.0000   1.0000   1.0000   1.0000   1.0000   1.0000
     1.0000   1.0000   1.0000   1.0000   1.0000   1.0000   1.0000   1.0000
     1.0000   1.0000   0.1252   0.1252  -0.0000  -0.0000  -0.0000  -0.0000
    -0.0000  -0.0000  -0.0000  -0.0000  -0.0000  -0.0000

     the Fermi energy is    13.9048 ev

!    total energy              =    -553.08009143 Ry
     estimated scf accuracy    <          1.7E-11 Ry
     smearing contrib. (-TS)   =       0.00004531 Ry
     internal energy E=F+TS    =    -553.08013674 Ry

     The total energy is F=E-TS. E is the sum of the following terms:
     one-electron contribution =    -190.91086632 Ry
     hartree contribution      =     122.73229729 Ry
     xc contribution           =     -69.91555719 Ry
     ewald contribution        =    -414.98601052 Ry

     convergence has been achieved in  10 iterations

     Forces acting on atoms (cartesian axes, Ry/au):

     atom    1 type  2   force =     0.00000000    0.00000000    0.00000000
     atom    2 type  2   force =     0.00000000    0.00000000    0.00000000
     atom    3 type  1   force =     0.00156167   -0.00156167   -0.00000000
     atom    4 type  1   force =    -0.00156167   -0.00156167    0.00000000
     atom    5 type  1   force =     0.00156167    0.00156167    0.00000000
     atom    6 type  1   force =    -0.00156167    0.00156167   -0.00000000
     The non-local contrib.  to forces
     atom    1 type  2   force =     0.00000000    0.00000000    0.00000000
     atom    2 type  2   force =     0.00000000    0.00000000    0.00000000
     atom    3 type  1   force =    -0.05339479    0.05339479    0.00000000
     atom    4 type  1   force =     0.05339479    0.05339479    0.00000000
     atom    5 type  1   force =    -0.05339479   -0.05339479    0.00000000
     atom    6 type  1   force =     0.05339479   -0.05339479    0.00000000
     The ionic contribution  to forces
     atom    1 type  2   force =    -0.00000000   -0.00000000    0.00000000
     atom    2 type  2   force =     0.00000000    0.00000000   -0.00000000
     atom    3 type  1   force =     1.42937233   -1.42937233    0.00000000
     atom    4 type  1   force =    -1.42937233   -1.42937233   -0.00000000
     atom    5 type  1   force =     1.42937233    1.42937233   -0.00000000
     atom    6 type  1   force =    -1.42937233    1.42937233    0.00000000
     The local contribution  to forces
     atom    1 type  2   force =     0.00000000    0.00000000    0.00000000
     atom    2 type  2   force =     0.00000000    0.00000000    0.00000000
     atom    3 type  1   force =    -1.37441536    1.37441536    0.00000000
     atom    4 type  1   force =     1.37441536    1.37441536    0.00000000
     atom    5 type  1   force =    -1.37441536   -1.37441536    0.00000000
     atom    6 type  1   force =     1.37441536   -1.37441536    0.00000000
     The core correction contribution to forces
     atom    1 type  2   force =     0.00000000    0.00000000    0.00000000
     atom    2 type  2   force =     0.00000000    0.00000000    0.00000000
     atom    3 type  1   force =     0.00000000    0.00000000    0.00000000
     atom    4 type  1   force =     0.00000000    0.00000000    0.00000000
     atom    5 type  1   force =     0.00000000    0.00000000    0.00000000
     atom    6 type  1   force =     0.00000000    0.00000000    0.00000000
     The Hubbard contrib.    to forces
     atom    1 type  2   force =     0.00000000    0.00000000    0.00000000
     atom    2 type  2   force =     0.00000000    0.00000000    0.00000000
     atom    3 type  1   force =     0.00000000    0.00000000    0.00000000
     atom    4 type  1   force =     0.00000000    0.00000000    0.00000000
     atom    5 type  1   force =     0.00000000    0.00000000    0.00000000
     atom    6 type  1   force =     0.00000000    0.00000000    0.00000000
     The SCF correction term to forces
     atom    1 type  2   force =    -0.00000000    0.00000000   -0.00000000
     atom    2 type  2   force =    -0.00000000    0.00000000    0.00000000
     atom    3 type  1   force =    -0.00000051    0.00000051    0.00000000
     atom    4 type  1   force =     0.00000051    0.00000051   -0.00000000
     atom    5 type  1   force =    -0.00000051   -0.00000051   -0.00000000
     atom    6 type  1   force =     0.00000051   -0.00000051    0.00000000

     Total force =     0.004417     Total SCF correction =     0.000001


     Computing stress (Cartesian axis) and pressure

          total   stress  (Ry/bohr**3)                   (kbar)     P=      -20.29
  -0.00011763   0.00000000   0.00000000          -17.30        0.00        0.00
   0.00000000  -0.00011763   0.00000000            0.00      -17.30        0.00
   0.00000000   0.00000000  -0.00017862            0.00        0.00      -26.28

     kinetic stress (kbar)  48446.94      0.00      0.00
                                0.00  48446.94      0.00
                                0.00      0.00  47545.42

     local   stress (kbar) -12671.16      0.00      0.00
                                0.00 -12671.16      0.00
                                0.00      0.00 -44430.35

     nonloc. stress (kbar)  14523.68      0.00      0.00
                                0.00  14523.68      0.00
                                0.00      0.00  14744.58

     hartree stress (kbar)   9607.79     -0.00     -0.00
                               -0.00   9607.79     -0.00
                               -0.00     -0.00  21385.01

     exc-cor stress (kbar)  -7288.34      0.00      0.00
                                0.00  -7288.34      0.00
                                0.00      0.00  -7263.49

     corecor stress (kbar)      0.00      0.00      0.00
                                0.00      0.00      0.00
                                0.00      0.00      0.00

     ewald   stress (kbar) -52636.21     -0.00     -0.00
                               -0.00 -52636.21     -0.00
                               -0.00     -0.00 -32007.45

     hubbard stress (kbar)      0.00      0.00      0.00
                                0.00      0.00      0.00
                                0.00      0.00      0.00

     DFT-D   stress (kbar)      0.00      0.00      0.00
                                0.00      0.00      0.00
                                0.00      0.00      0.00

     XDM     stress (kbar)      0.00      0.00      0.00
                                0.00      0.00      0.00
                                0.00      0.00      0.00

     dft-nl  stress (kbar)      0.00      0.00      0.00
                                0.00      0.00      0.00
                                0.00      0.00      0.00

     TS-vdW  stress (kbar)      0.00      0.00      0.00
                                0.00      0.00      0.00
                                0.00      0.00      0.00


                                0.00      0.00      0.00
                                0.00      0.00      0.00


                                0.00      0.00      0.00


     Writing all to output data dir tmp/espresso.save/
 
     init_run     :      3.09s CPU      1.60s WALL (       1 calls)
     electrons    :    101.61s CPU     52.03s WALL (       1 calls)
     forces       :      4.99s CPU      2.55s WALL (       1 calls)
     stress       :      7.19s CPU      3.64s WALL (       1 calls)

     Called by init_run:
     wfcinit      :      3.02s CPU      1.54s WALL (       1 calls)
     wfcinit:atom :      0.01s CPU      0.01s WALL (      30 calls)
     wfcinit:wfcr :      2.93s CPU      1.50s WALL (      30 calls)
     potinit      :      0.02s CPU      0.01s WALL (       1 calls)
     hinit0       :      0.04s CPU      0.03s WALL (       1 calls)

     Called by electrons:
     c_bands      :     92.97s CPU     47.58s WALL (      10 calls)
     sum_band     :      8.51s CPU      4.36s WALL (      10 calls)
     v_of_rho     :      0.05s CPU      0.03s WALL (      11 calls)
     v_h          :      0.00s CPU      0.00s WALL (      11 calls)
     v_xc         :      0.04s CPU      0.02s WALL (      11 calls)
     mix_rho      :      0.05s CPU      0.03s WALL (      10 calls)

     Called by c_bands:
     init_us_2    :      0.31s CPU      0.16s WALL (     690 calls)
     init_us_2:cp :      0.30s CPU      0.16s WALL (     690 calls)
     cegterg      :     85.65s CPU     43.85s WALL (     300 calls)

     Called by sum_band:
     sum_band:wei :      0.06s CPU      0.03s WALL (      10 calls)
     sum_band:loo :      8.42s CPU      4.31s WALL (      10 calls)
     sum_band:buf :      0.05s CPU      0.03s WALL (     300 calls)
     sum_band:ini :      0.09s CPU      0.05s WALL (     300 calls)

     Called by *egterg:
     cdiaghg      :     12.35s CPU      6.29s WALL (     997 calls)
     cegterg:over :      5.24s CPU      2.67s WALL (     697 calls)
     cegterg:upda :      4.18s CPU      2.12s WALL (     697 calls)
     cegterg:last :      7.36s CPU      3.74s WALL (     600 calls)
     cdiaghg:chol :      0.58s CPU      0.30s WALL (     997 calls)
     cdiaghg:inve :      0.09s CPU      0.05s WALL (     997 calls)
     cdiaghg:para :      1.28s CPU      0.66s WALL (    1994 calls)
     h_psi        :     57.24s CPU     29.40s WALL (    1027 calls)
     g_psi        :      0.08s CPU      0.04s WALL (     697 calls)

     Called by h_psi:
     h_psi:calbec :      6.92s CPU      3.61s WALL (    1027 calls)
     vloc_psi     :     40.18s CPU     20.63s WALL (    1027 calls)
     add_vuspsi   :     10.02s CPU      5.10s WALL (    1027 calls)

     General routines
     calbec       :      8.27s CPU      4.32s WALL (    1177 calls)
     fft          :      0.06s CPU      0.03s WALL (     150 calls)
     ffts         :      0.01s CPU      0.01s WALL (      40 calls)
     fftw         :     45.51s CPU     23.36s WALL (  257300 calls)
 
     Parallel routines
 
     PWSCF        :   2m 0.29s CPU   1m 2.40s WALL

 
   This run was terminated on:  10:56: 7  10Apr2022            

=------------------------------------------------------------------------------=
   JOB DONE.
=------------------------------------------------------------------------------=
