
     Program PWSCF v.7.0 starts on 10Apr2022 at 10:38:55 

     This program is part of the open-source Quantum ESPRESSO suite
     for quantum simulation of materials; please cite
         "P. Giannozzi et al., J. Phys.:Condens. Matter 21 395502 (2009);
         "P. Giannozzi et al., J. Phys.:Condens. Matter 29 465901 (2017);
         "P. Giannozzi et al., J. Chem. Phys. 152 154105 (2020);
          URL http://www.quantum-espresso.org", 
     in publications or presentations arising from this work. More details at
     http://www.quantum-espresso.org/quote

     Parallel version (MPI & OpenMP), running on      64 processor cores
     Number of MPI processes:                32
     Threads/MPI process:                     2

     MPI processes distributed on     1 nodes
     R & G space division:  proc/nbgrp/npool/nimage =      32
     230673 MiB available memory on the printing compute node when the environment starts
 
     Reading input from kpoints_557.pwi
Warning: card &CELL ignored
Warning: card / ignored

     Current dimensions of program PWSCF are:
     Max number of different atomic species (ntypx) = 10
     Max number of k-points (npk) =  40000
     Max angular momentum in pseudopotentials (lmaxx) =  4

     Subspace diagonalization in iterative solution of the eigenvalue problem:
     one sub-group per band group will be used
     scalapack distributed-memory algorithm (size of sub-group:  5*  5 procs)

 
     Parallelization info
     --------------------
     sticks:   dense  smooth     PW     G-vecs:    dense   smooth      PW
     Min          58      58     16                 1342     1342     203
     Max          59      59     18                 1345     1345     205
     Sum        1885    1885    545                42999    42999    6523
 
     Using Slab Decomposition
 

     Title: 
     IrO2 Unit Cell                                                             


     bravais-lattice index     =            6
     lattice parameter (alat)  =       8.5888  a.u.
     unit-cell volume          =     444.6868 (a.u.)^3
     number of atoms/cell      =            6
     number of atomic types    =            2
     number of electrons       =        58.00
     number of Kohn-Sham states=           70
     kinetic-energy cutoff     =      80.0000  Ry
     charge density cutoff     =     320.0000  Ry
     scf convergence threshold =      1.0E-09
     mixing beta               =       0.7000
     number of iterations used =            8  plain     mixing
     Exchange-correlation= PBE
                           (   1   4   3   4   0   0   0)
     Non magnetic calculation with spin-orbit


     celldm(1)=   8.588800  celldm(2)=   0.000000  celldm(3)=   0.701870
     celldm(4)=   0.000000  celldm(5)=   0.000000  celldm(6)=   0.000000

     crystal axes: (cart. coord. in units of alat)
               a(1) = (   1.000000   0.000000   0.000000 )  
               a(2) = (   0.000000   1.000000   0.000000 )  
               a(3) = (   0.000000   0.000000   0.701870 )  

     reciprocal axes: (cart. coord. in units 2 pi/alat)
               b(1) = (  1.000000  0.000000  0.000000 )  
               b(2) = (  0.000000  1.000000  0.000000 )  
               b(3) = (  0.000000  0.000000  1.424765 )  


     PseudoPot. # 1 for O  read from file:
     ../../XX_PSEUDO/O_ONCV_PBE_fr.upf
     MD5 check sum: 59c925217d3b58c6d762355590b68b09
     Pseudo is Norm-conserving, Zval =  6.0
     Generated using ONCVPSP code by D. R. Hamann
     Using radial grid of  936 points,  6 beta functions with: 
                l(1) =   0
                l(2) =   0
                l(3) =   1
                l(4) =   1
                l(5) =   1
                l(6) =   1

     PseudoPot. # 2 for Ir read from file:
     ../../XX_PSEUDO/Ir_ONCV_PBE_fr.upf
     MD5 check sum: 924e909c4146afa09f62ee3401806954
     Pseudo is Norm-conserving, Zval = 17.0
     Generated using ONCVPSP code by D. R. Hamann
     Using radial grid of 1310 points, 14 beta functions with: 
                l(1) =   0
                l(2) =   0
                l(3) =   1
                l(4) =   1
                l(5) =   1
                l(6) =   1
                l(7) =   2
                l(8) =   2
                l(9) =   2
               l(10) =   2
               l(11) =   3
               l(12) =   3
               l(13) =   3
               l(14) =   3

     atomic species   valence    mass     pseudopotential
        O              6.00    15.99900     O ( 1.00)
        Ir            17.00   192.21700     Ir( 1.00)

     16 Sym. Ops., with inversion, found ( 8 have fractional translation)


                                    s                        frac. trans.

      isym =  1     identity                                     

 cryst.   s( 1) = (     1          0          0      )
                  (     0          1          0      )
                  (     0          0          1      )

 cart.    s( 1) = (  1.0000000  0.0000000  0.0000000 )
                  (  0.0000000  1.0000000  0.0000000 )
                  (  0.0000000  0.0000000  1.0000000 )


      isym =  2     180 deg rotation - cart. axis [0,0,1]        

 cryst.   s( 2) = (    -1          0          0      )
                  (     0         -1          0      )
                  (     0          0          1      )

 cart.    s( 2) = ( -1.0000000  0.0000000  0.0000000 )
                  (  0.0000000 -1.0000000  0.0000000 )
                  (  0.0000000  0.0000000  1.0000000 )


      isym =  3     180 deg rotation - cart. axis [0,1,0]        

 cryst.   s( 3) = (    -1          0          0      )    f =(  0.5000000 )
                  (     0          1          0      )       ( -0.5000000 )
                  (     0          0         -1      )       (  0.5000000 )

 cart.    s( 3) = ( -1.0000000  0.0000000  0.0000000 )    f =(  0.5000000 )
                  (  0.0000000  1.0000000  0.0000000 )       ( -0.5000000 )
                  (  0.0000000  0.0000000 -1.0000000 )       (  0.3509351 )


      isym =  4     180 deg rotation - cart. axis [1,0,0]        

 cryst.   s( 4) = (     1          0          0      )    f =( -0.5000000 )
                  (     0         -1          0      )       (  0.5000000 )
                  (     0          0         -1      )       (  0.5000000 )

 cart.    s( 4) = (  1.0000000  0.0000000  0.0000000 )    f =( -0.5000000 )
                  (  0.0000000 -1.0000000  0.0000000 )       (  0.5000000 )
                  (  0.0000000  0.0000000 -1.0000000 )       (  0.3509351 )


      isym =  5     180 deg rotation - cart. axis [1,1,0]        

 cryst.   s( 5) = (     0          1          0      )
                  (     1          0          0      )
                  (     0          0         -1      )

 cart.    s( 5) = (  0.0000000  1.0000000  0.0000000 )
                  (  1.0000000  0.0000000  0.0000000 )
                  (  0.0000000  0.0000000 -1.0000000 )


      isym =  6     180 deg rotation - cart. axis [1,-1,0]       

 cryst.   s( 6) = (     0         -1          0      )
                  (    -1          0          0      )
                  (     0          0         -1      )

 cart.    s( 6) = (  0.0000000 -1.0000000  0.0000000 )
                  ( -1.0000000  0.0000000  0.0000000 )
                  (  0.0000000  0.0000000 -1.0000000 )


      isym =  7      90 deg rotation - cart. axis [0,0,-1]       

 cryst.   s( 7) = (     0         -1          0      )    f =( -0.5000000 )
                  (     1          0          0      )       (  0.5000000 )
                  (     0          0          1      )       ( -0.5000000 )

 cart.    s( 7) = (  0.0000000  1.0000000  0.0000000 )    f =( -0.5000000 )
                  ( -1.0000000  0.0000000  0.0000000 )       (  0.5000000 )
                  (  0.0000000  0.0000000  1.0000000 )       ( -0.3509351 )


      isym =  8      90 deg rotation - cart. axis [0,0,1]        

 cryst.   s( 8) = (     0          1          0      )    f =(  0.5000000 )
                  (    -1          0          0      )       ( -0.5000000 )
                  (     0          0          1      )       ( -0.5000000 )

 cart.    s( 8) = (  0.0000000 -1.0000000  0.0000000 )    f =(  0.5000000 )
                  (  1.0000000  0.0000000  0.0000000 )       ( -0.5000000 )
                  (  0.0000000  0.0000000  1.0000000 )       ( -0.3509351 )


      isym =  9     inversion                                    

 cryst.   s( 9) = (    -1          0          0      )
                  (     0         -1          0      )
                  (     0          0         -1      )

 cart.    s( 9) = ( -1.0000000  0.0000000  0.0000000 )
                  (  0.0000000 -1.0000000  0.0000000 )
                  (  0.0000000  0.0000000 -1.0000000 )


      isym = 10     inv. 180 deg rotation - cart. axis [0,0,1]   

 cryst.   s(10) = (     1          0          0      )
                  (     0          1          0      )
                  (     0          0         -1      )

 cart.    s(10) = (  1.0000000  0.0000000  0.0000000 )
                  (  0.0000000  1.0000000  0.0000000 )
                  (  0.0000000  0.0000000 -1.0000000 )


      isym = 11     inv. 180 deg rotation - cart. axis [0,1,0]   

 cryst.   s(11) = (     1          0          0      )    f =( -0.5000000 )
                  (     0         -1          0      )       (  0.5000000 )
                  (     0          0          1      )       ( -0.5000000 )

 cart.    s(11) = (  1.0000000  0.0000000  0.0000000 )    f =( -0.5000000 )
                  (  0.0000000 -1.0000000  0.0000000 )       (  0.5000000 )
                  (  0.0000000  0.0000000  1.0000000 )       ( -0.3509351 )


      isym = 12     inv. 180 deg rotation - cart. axis [1,0,0]   

 cryst.   s(12) = (    -1          0          0      )    f =(  0.5000000 )
                  (     0          1          0      )       ( -0.5000000 )
                  (     0          0          1      )       ( -0.5000000 )

 cart.    s(12) = ( -1.0000000  0.0000000  0.0000000 )    f =(  0.5000000 )
                  (  0.0000000  1.0000000  0.0000000 )       ( -0.5000000 )
                  (  0.0000000  0.0000000  1.0000000 )       ( -0.3509351 )


      isym = 13     inv. 180 deg rotation - cart. axis [1,1,0]   

 cryst.   s(13) = (     0         -1          0      )
                  (    -1          0          0      )
                  (     0          0          1      )

 cart.    s(13) = (  0.0000000 -1.0000000  0.0000000 )
                  ( -1.0000000  0.0000000  0.0000000 )
                  (  0.0000000  0.0000000  1.0000000 )


      isym = 14     inv. 180 deg rotation - cart. axis [1,-1,0]  

 cryst.   s(14) = (     0          1          0      )
                  (     1          0          0      )
                  (     0          0          1      )

 cart.    s(14) = (  0.0000000  1.0000000  0.0000000 )
                  (  1.0000000  0.0000000  0.0000000 )
                  (  0.0000000  0.0000000  1.0000000 )


      isym = 15     inv.  90 deg rotation - cart. axis [0,0,-1]  

 cryst.   s(15) = (     0          1          0      )    f =(  0.5000000 )
                  (    -1          0          0      )       ( -0.5000000 )
                  (     0          0         -1      )       (  0.5000000 )

 cart.    s(15) = (  0.0000000 -1.0000000  0.0000000 )    f =(  0.5000000 )
                  (  1.0000000  0.0000000  0.0000000 )       ( -0.5000000 )
                  (  0.0000000  0.0000000 -1.0000000 )       (  0.3509351 )


      isym = 16     inv.  90 deg rotation - cart. axis [0,0,1]   

 cryst.   s(16) = (     0         -1          0      )    f =( -0.5000000 )
                  (     1          0          0      )       (  0.5000000 )
                  (     0          0         -1      )       (  0.5000000 )

 cart.    s(16) = (  0.0000000  1.0000000  0.0000000 )    f =( -0.5000000 )
                  ( -1.0000000  0.0000000  0.0000000 )       (  0.5000000 )
                  (  0.0000000  0.0000000 -1.0000000 )       (  0.3509351 )


     double point group D_4h(4/mmm)
     there are 14 classes and  4 irreducible representations
     the character table:

       E     -E    2C4   -2C4   C2    2C2' 2C2'' i     -i    2S4   -2S4   s_h 
                               -C2   -2C2' -2C2'                         -s_h 
G_6+   2.00 -2.00  1.41 -1.41  0.00  0.00  0.00  2.00 -2.00  1.41 -1.41  0.00
G_7+   2.00 -2.00 -1.41  1.41  0.00  0.00  0.00  2.00 -2.00 -1.41  1.41  0.00
G_6-   2.00 -2.00  1.41 -1.41  0.00  0.00  0.00 -2.00  2.00 -1.41  1.41  0.00
G_7-   2.00 -2.00 -1.41  1.41  0.00  0.00  0.00 -2.00  2.00  1.41 -1.41  0.00

        2s_v  2s_d
       -2s_v -2s_d
G_6+   0.00  0.00
G_7+   0.00  0.00
G_6-   0.00  0.00
G_7-   0.00  0.00

     the symmetry operations in each class and the name of the first element:

     E             1
          identity                                               
     -E           -1
          identity E                                             
     2C4           7    8
           90 deg rotation - cart. axis [0,0,-1]                 
     -2C4         -7   -8
           90 deg rotation - cart. axis [0,0,-1] E               
      C2  -C2      2   -2
          180 deg rotation - cart. axis [0,0,1]                  
      2C2'-2C2'    3   -3    4   -4
          180 deg rotation - cart. axis [0,1,0]                  
     2C2''-2C2'    5   -5   -6    6
          180 deg rotation - cart. axis [1,1,0]                  
     i             9
          inversion                                              
     -i           -9
          inversion E                                            
     2S4          15   16
          inv.  90 deg rotation - cart. axis [0,0,-1]            
     -2S4        -15  -16
          inv.  90 deg rotation - cart. axis [0,0,-1] E          
      s_h -s_h    10  -10
          inv. 180 deg rotation - cart. axis [0,0,1]             
      2s_v-2s_v   11  -11   12  -12
          inv. 180 deg rotation - cart. axis [0,1,0]             
      2s_d-2s_d   13  -13  -14   14
          inv. 180 deg rotation - cart. axis [1,1,0]             

   Cartesian axes

     site n.     atom                  positions (alat units)
         1           Ir  tau(   1) = (   0.0000000   0.0000000   0.0000000  )
         2           Ir  tau(   2) = (   0.5000000   0.5000000   0.3509351  )
         3           O   tau(   3) = (   0.1916000   0.8084000   0.3509351  )
         4           O   tau(   4) = (   0.3084000   0.3084000   0.0000000  )
         5           O   tau(   5) = (   0.6916000   0.6916000   0.0000000  )
         6           O   tau(   6) = (   0.8084000   0.1916000   0.3509351  )

   Crystallographic axes

     site n.     atom                  positions (cryst. coord.)
         1           Ir  tau(   1) = (  0.0000000  0.0000000  0.0000000  )
         2           Ir  tau(   2) = (  0.5000000  0.5000000  0.5000000  )
         3           O   tau(   3) = (  0.1916000  0.8084000  0.5000000  )
         4           O   tau(   4) = (  0.3084000  0.3084000  0.0000000  )
         5           O   tau(   5) = (  0.6916000  0.6916000  0.0000000  )
         6           O   tau(   6) = (  0.8084000  0.1916000  0.5000000  )

     number of k points=    24  Methfessel-Paxton smearing, width (Ry)=  0.0050
                       cart. coord. in units 2pi/alat
        k(    1) = (   0.0000000   0.0000000   0.0000000), wk =   0.0057143
        k(    2) = (   0.0000000   0.0000000   0.2035378), wk =   0.0114286
        k(    3) = (   0.0000000   0.0000000   0.4070757), wk =   0.0114286
        k(    4) = (   0.0000000   0.0000000   0.6106135), wk =   0.0114286
        k(    5) = (   0.0000000   0.2000000   0.0000000), wk =   0.0228571
        k(    6) = (   0.0000000   0.2000000   0.2035378), wk =   0.0457143
        k(    7) = (   0.0000000   0.2000000   0.4070757), wk =   0.0457143
        k(    8) = (   0.0000000   0.2000000   0.6106135), wk =   0.0457143
        k(    9) = (   0.0000000   0.4000000   0.0000000), wk =   0.0228571
        k(   10) = (   0.0000000   0.4000000   0.2035378), wk =   0.0457143
        k(   11) = (   0.0000000   0.4000000   0.4070757), wk =   0.0457143
        k(   12) = (   0.0000000   0.4000000   0.6106135), wk =   0.0457143
        k(   13) = (   0.2000000   0.2000000   0.0000000), wk =   0.0228571
        k(   14) = (   0.2000000   0.2000000   0.2035378), wk =   0.0457143
        k(   15) = (   0.2000000   0.2000000   0.4070757), wk =   0.0457143
        k(   16) = (   0.2000000   0.2000000   0.6106135), wk =   0.0457143
        k(   17) = (   0.2000000   0.4000000   0.0000000), wk =   0.0457143
        k(   18) = (   0.2000000   0.4000000   0.2035378), wk =   0.0914286
        k(   19) = (   0.2000000   0.4000000   0.4070757), wk =   0.0914286
        k(   20) = (   0.2000000   0.4000000   0.6106135), wk =   0.0914286
        k(   21) = (   0.4000000   0.4000000   0.0000000), wk =   0.0228571
        k(   22) = (   0.4000000   0.4000000   0.2035378), wk =   0.0457143
        k(   23) = (   0.4000000   0.4000000   0.4070757), wk =   0.0457143
        k(   24) = (   0.4000000   0.4000000   0.6106135), wk =   0.0457143

                       cryst. coord.
        k(    1) = (   0.0000000   0.0000000   0.0000000), wk =   0.0057143
        k(    2) = (   0.0000000   0.0000000   0.1428571), wk =   0.0114286
        k(    3) = (   0.0000000   0.0000000   0.2857143), wk =   0.0114286
        k(    4) = (   0.0000000   0.0000000   0.4285714), wk =   0.0114286
        k(    5) = (   0.0000000   0.2000000   0.0000000), wk =   0.0228571
        k(    6) = (   0.0000000   0.2000000   0.1428571), wk =   0.0457143
        k(    7) = (   0.0000000   0.2000000   0.2857143), wk =   0.0457143
        k(    8) = (   0.0000000   0.2000000   0.4285714), wk =   0.0457143
        k(    9) = (   0.0000000   0.4000000   0.0000000), wk =   0.0228571
        k(   10) = (   0.0000000   0.4000000   0.1428571), wk =   0.0457143
        k(   11) = (   0.0000000   0.4000000   0.2857143), wk =   0.0457143
        k(   12) = (   0.0000000   0.4000000   0.4285714), wk =   0.0457143
        k(   13) = (   0.2000000   0.2000000   0.0000000), wk =   0.0228571
        k(   14) = (   0.2000000   0.2000000   0.1428571), wk =   0.0457143
        k(   15) = (   0.2000000   0.2000000   0.2857143), wk =   0.0457143
        k(   16) = (   0.2000000   0.2000000   0.4285714), wk =   0.0457143
        k(   17) = (   0.2000000   0.4000000   0.0000000), wk =   0.0457143
        k(   18) = (   0.2000000   0.4000000   0.1428571), wk =   0.0914286
        k(   19) = (   0.2000000   0.4000000   0.2857143), wk =   0.0914286
        k(   20) = (   0.2000000   0.4000000   0.4285714), wk =   0.0914286
        k(   21) = (   0.4000000   0.4000000   0.0000000), wk =   0.0228571
        k(   22) = (   0.4000000   0.4000000   0.1428571), wk =   0.0457143
        k(   23) = (   0.4000000   0.4000000   0.2857143), wk =   0.0457143
        k(   24) = (   0.4000000   0.4000000   0.4285714), wk =   0.0457143

     Dense  grid:    42999 G-vectors     FFT dimensions: (  50,  50,  36)

     Dynamical RAM for                 wfc:       0.36 MB

     Dynamical RAM for     wfc (w. buffer):       8.92 MB

     Dynamical RAM for           str. fact:       0.04 MB

     Dynamical RAM for           local pot:       0.00 MB

     Dynamical RAM for          nlocal pot:       0.46 MB

     Dynamical RAM for                qrad:      20.10 MB

     Dynamical RAM for          rho,v,vnew:       0.70 MB

     Dynamical RAM for               rhoin:       0.23 MB

     Dynamical RAM for            rho*nmix:       1.31 MB

     Dynamical RAM for           G-vectors:       0.09 MB

     Dynamical RAM for          h,s,v(r/c):       0.04 MB

     Dynamical RAM for          <psi|beta>:       0.38 MB

     Dynamical RAM for                 psi:       0.71 MB

     Dynamical RAM for                hpsi:       0.71 MB

     Dynamical RAM for      wfcinit/wfcrot:       0.67 MB

     Estimated static dynamical RAM per process >      30.91 MB

     Estimated max dynamical RAM per process >      34.07 MB

     Estimated total dynamical RAM >       1.06 GB

     Initial potential from superposition of free atoms

     starting charge      57.9997, renormalised to      58.0000
     Starting wfcs are   72 randomized atomic wfcs

     total cpu time spent up to now is        1.4 secs

     Self-consistent Calculation

     iteration #  1     ecut=    80.00 Ry     beta= 0.70
     Davidson diagonalization with overlap

---- Real-time Memory Report at c_bands before calling an iterative solver
            83 MiB given to the printing process from OS
             0 MiB allocation reported by mallinfo(arena+hblkhd)
        229089 MiB available memory on the node where the printing process lives
------------------
     ethr =  1.00E-02,  avg # of iterations =  2.6

     total cpu time spent up to now is        5.5 secs

     total energy              =    -552.42697278 Ry
     estimated scf accuracy    <       1.21466765 Ry

     iteration #  2     ecut=    80.00 Ry     beta= 0.70
     Davidson diagonalization with overlap

---- Real-time Memory Report at c_bands before calling an iterative solver
            88 MiB given to the printing process from OS
             0 MiB allocation reported by mallinfo(arena+hblkhd)
        228945 MiB available memory on the node where the printing process lives
------------------
     ethr =  2.09E-03,  avg # of iterations =  2.0

     total cpu time spent up to now is       10.1 secs

     total energy              =    -552.27944318 Ry
     estimated scf accuracy    <       4.29603520 Ry

     iteration #  3     ecut=    80.00 Ry     beta= 0.70
     Davidson diagonalization with overlap

---- Real-time Memory Report at c_bands before calling an iterative solver
            93 MiB given to the printing process from OS
             0 MiB allocation reported by mallinfo(arena+hblkhd)
        228888 MiB available memory on the node where the printing process lives
------------------
     ethr =  2.09E-03,  avg # of iterations =  2.0

     total cpu time spent up to now is       14.3 secs

     total energy              =    -553.07588559 Ry
     estimated scf accuracy    <       0.03492907 Ry

     iteration #  4     ecut=    80.00 Ry     beta= 0.70
     Davidson diagonalization with overlap

---- Real-time Memory Report at c_bands before calling an iterative solver
            94 MiB given to the printing process from OS
             0 MiB allocation reported by mallinfo(arena+hblkhd)
        228852 MiB available memory on the node where the printing process lives
------------------
     ethr =  6.02E-05,  avg # of iterations =  2.5

     total cpu time spent up to now is       18.6 secs

     total energy              =    -553.07932708 Ry
     estimated scf accuracy    <       0.00520443 Ry

     iteration #  5     ecut=    80.00 Ry     beta= 0.70
     Davidson diagonalization with overlap

---- Real-time Memory Report at c_bands before calling an iterative solver
            94 MiB given to the printing process from OS
             0 MiB allocation reported by mallinfo(arena+hblkhd)
        228831 MiB available memory on the node where the printing process lives
------------------
     ethr =  8.97E-06,  avg # of iterations =  2.3

     total cpu time spent up to now is       22.4 secs

     total energy              =    -553.08025165 Ry
     estimated scf accuracy    <       0.00026226 Ry

     iteration #  6     ecut=    80.00 Ry     beta= 0.70
     Davidson diagonalization with overlap

---- Real-time Memory Report at c_bands before calling an iterative solver
            95 MiB given to the printing process from OS
             0 MiB allocation reported by mallinfo(arena+hblkhd)
        228800 MiB available memory on the node where the printing process lives
------------------
     ethr =  4.52E-07,  avg # of iterations =  2.2

     total cpu time spent up to now is       26.2 secs

     total energy              =    -553.08028389 Ry
     estimated scf accuracy    <       0.00001112 Ry

     iteration #  7     ecut=    80.00 Ry     beta= 0.70
     Davidson diagonalization with overlap

---- Real-time Memory Report at c_bands before calling an iterative solver
            95 MiB given to the printing process from OS
             0 MiB allocation reported by mallinfo(arena+hblkhd)
        228797 MiB available memory on the node where the printing process lives
------------------
     ethr =  1.92E-08,  avg # of iterations =  2.0

     total cpu time spent up to now is       30.6 secs

     total energy              =    -553.08028740 Ry
     estimated scf accuracy    <       0.00000044 Ry

     iteration #  8     ecut=    80.00 Ry     beta= 0.70
     Davidson diagonalization with overlap

---- Real-time Memory Report at c_bands before calling an iterative solver
            96 MiB given to the printing process from OS
             0 MiB allocation reported by mallinfo(arena+hblkhd)
        228768 MiB available memory on the node where the printing process lives
------------------
     ethr =  7.57E-10,  avg # of iterations =  2.0

     total cpu time spent up to now is       34.4 secs

     total energy              =    -553.08028743 Ry
     estimated scf accuracy    <       0.00000006 Ry

     iteration #  9     ecut=    80.00 Ry     beta= 0.70
     Davidson diagonalization with overlap

---- Real-time Memory Report at c_bands before calling an iterative solver
            96 MiB given to the printing process from OS
             0 MiB allocation reported by mallinfo(arena+hblkhd)
        228764 MiB available memory on the node where the printing process lives
------------------
     ethr =  1.06E-10,  avg # of iterations =  2.0

     total cpu time spent up to now is       38.6 secs

     total energy              =    -553.08028744 Ry
     estimated scf accuracy    <          3.0E-09 Ry

     iteration # 10     ecut=    80.00 Ry     beta= 0.70
     Davidson diagonalization with overlap

---- Real-time Memory Report at c_bands before calling an iterative solver
            97 MiB given to the printing process from OS
             0 MiB allocation reported by mallinfo(arena+hblkhd)
        228759 MiB available memory on the node where the printing process lives
------------------
     ethr =  5.11E-12,  avg # of iterations =  2.0

     total cpu time spent up to now is       42.9 secs

     End of self-consistent calculation

          k = 0.0000 0.0000 0.0000 (  5409 PWs)   bands (ev):

   -79.3898 -79.3898 -79.3885 -79.3885 -46.2322 -46.2322 -46.2215 -46.2215
   -32.7701 -32.7701 -32.7579 -32.7579 -32.6286 -32.6286 -32.6158 -32.6158
    -7.0707  -7.0707  -5.9147  -5.9147  -4.9993  -4.9993  -4.7978  -4.7978
     4.2702   4.2702   4.5173   4.5173   6.0327   6.0327   6.1442   6.1442
     6.2591   6.2591   8.7886   8.7886   8.9417   8.9417   9.1995   9.1995
    10.3360  10.3360  10.9891  10.9891  10.9934  10.9934  11.0359  11.0359
    11.1982  11.1982  11.3783  11.3783  11.6529  11.6529  11.6714  11.6714
    12.0546  12.0546  14.6421  14.6421  15.0684  15.0684  17.6878  17.6878
    17.8979  17.8979  18.0448  18.0448  19.4486  19.4486

     occupation numbers 
     1.0000   1.0000   1.0000   1.0000   1.0000   1.0000   1.0000   1.0000
     1.0000   1.0000   1.0000   1.0000   1.0000   1.0000   1.0000   1.0000
     1.0000   1.0000   1.0000   1.0000   1.0000   1.0000   1.0000   1.0000
     1.0000   1.0000   1.0000   1.0000   1.0000   1.0000   1.0000   1.0000
     1.0000   1.0000   1.0000   1.0000   1.0000   1.0000   1.0000   1.0000
     1.0000   1.0000   1.0000   1.0000   1.0000   1.0000   1.0000   1.0000
     1.0000   1.0000   1.0000   1.0000   1.0000   1.0000   1.0000   1.0000
     1.0000   1.0000  -0.0000  -0.0000  -0.0000  -0.0000  -0.0000  -0.0000
    -0.0000  -0.0000  -0.0000  -0.0000  -0.0000  -0.0000

          k = 0.0000 0.0000 0.2035 (  5361 PWs)   bands (ev):

   -79.3893 -79.3893 -79.3881 -79.3881 -46.2338 -46.2338 -46.2241 -46.2241
   -32.7743 -32.7743 -32.7686 -32.7686 -32.6367 -32.6367 -32.6197 -32.6197
    -6.8879  -6.8879  -5.8216  -5.8216  -5.0836  -5.0836  -4.9112  -4.9112
     4.5376   4.5376   4.7091   4.7091   6.1914   6.1914   6.2555   6.2555
     6.4558   6.4558   8.1117   8.1117   9.0544   9.0544   9.3333   9.3333
     9.4012   9.4012  10.0063  10.0063  10.0996  10.0996  11.2221  11.2221
    11.6472  11.6472  11.6884  11.6884  11.8355  11.8355  12.4868  12.4868
    12.5517  12.5517  14.8780  14.8780  15.0591  15.0591  17.2322  17.2322
    17.5440  17.5440  18.3795  18.3795  19.1435  19.1435

     occupation numbers 
     1.0000   1.0000   1.0000   1.0000   1.0000   1.0000   1.0000   1.0000
     1.0000   1.0000   1.0000   1.0000   1.0000   1.0000   1.0000   1.0000
     1.0000   1.0000   1.0000   1.0000   1.0000   1.0000   1.0000   1.0000
     1.0000   1.0000   1.0000   1.0000   1.0000   1.0000   1.0000   1.0000
     1.0000   1.0000   1.0000   1.0000   1.0000   1.0000   1.0000   1.0000
     1.0000   1.0000   1.0000   1.0000   1.0000   1.0000   1.0000   1.0000
     1.0000   1.0000   1.0000   1.0000   1.0000   1.0000   1.0000   1.0000
     1.0000   1.0000  -0.0000  -0.0000  -0.0000  -0.0000  -0.0000  -0.0000
    -0.0000  -0.0000  -0.0000  -0.0000  -0.0000  -0.0000

          k = 0.0000 0.0000 0.4071 (  5389 PWs)   bands (ev):

   -79.3882 -79.3882 -79.3873 -79.3873 -46.2370 -46.2370 -46.2303 -46.2303
   -32.7940 -32.7940 -32.7907 -32.7907 -32.6469 -32.6469 -32.6277 -32.6277
    -6.4244  -6.4244  -5.6508  -5.6508  -5.2580  -5.2580  -5.1595  -5.1595
     5.1714   5.1714   5.2394   5.2394   6.5435   6.5435   6.5791   6.5791
     7.0115   7.0115   7.0383   7.0383   7.9937   7.9937   8.9211   8.9211
     9.1071   9.1071   9.5393   9.5393   9.8316   9.8316  10.3179  10.3179
    11.8000  11.8000  12.0799  12.0799  12.1857  12.1857  13.3712  13.3712
    13.4045  13.4045  14.3734  14.3734  15.8068  15.8068  16.5016  16.5016
    16.7906  16.7906  17.7220  17.7220  20.2864  20.2864

     occupation numbers 
     1.0000   1.0000   1.0000   1.0000   1.0000   1.0000   1.0000   1.0000
     1.0000   1.0000   1.0000   1.0000   1.0000   1.0000   1.0000   1.0000
     1.0000   1.0000   1.0000   1.0000   1.0000   1.0000   1.0000   1.0000
     1.0000   1.0000   1.0000   1.0000   1.0000   1.0000   1.0000   1.0000
     1.0000   1.0000   1.0000   1.0000   1.0000   1.0000   1.0000   1.0000
     1.0000   1.0000   1.0000   1.0000   1.0000   1.0000   1.0000   1.0000
     1.0000   1.0000   1.0000   1.0000   1.0000   1.0000   1.0000   1.0000
     1.0000   1.0000  -0.0000  -0.0000  -0.0000  -0.0000  -0.0000  -0.0000
    -0.0000  -0.0000  -0.0000  -0.0000  -0.0000  -0.0000

          k = 0.0000 0.0000 0.6106 (  5406 PWs)   bands (ev):

   -79.3871 -79.3871 -79.3868 -79.3868 -46.2386 -46.2386 -46.2363 -46.2363
   -32.8142 -32.8142 -32.8115 -32.8115 -32.6448 -32.6448 -32.6364 -32.6364
    -5.9119  -5.9119  -5.6322  -5.6322  -5.3814  -5.3814  -5.3607  -5.3607
     5.5939   5.5939   5.8153   5.8153   6.4481   6.4481   6.9670   6.9670
     7.0233   7.0233   7.0781   7.0781   7.9608   7.9608   8.2942   8.2942
     8.3918   8.3918   9.1359   9.1359   9.8669   9.8669   9.9899   9.9899
    11.8053  11.8053  12.0370  12.0370  12.7153  12.7153  13.4310  13.4310
    14.0040  14.0040  14.1101  14.1101  16.0876  16.0876  16.1390  16.1390
    16.5266  16.5266  16.8174  16.8174  22.0894  22.0894

     occupation numbers 
     1.0000   1.0000   1.0000   1.0000   1.0000   1.0000   1.0000   1.0000
     1.0000   1.0000   1.0000   1.0000   1.0000   1.0000   1.0000   1.0000
     1.0000   1.0000   1.0000   1.0000   1.0000   1.0000   1.0000   1.0000
     1.0000   1.0000   1.0000   1.0000   1.0000   1.0000   1.0000   1.0000
     1.0000   1.0000   1.0000   1.0000   1.0000   1.0000   1.0000   1.0000
     1.0000   1.0000   1.0000   1.0000   1.0000   1.0000   1.0000   1.0000
     1.0000   1.0000   1.0000   1.0000   1.0000   1.0000   1.0000   1.0000
    -0.0355  -0.0355  -0.0003  -0.0003  -0.0000  -0.0000  -0.0000  -0.0000
    -0.0000  -0.0000  -0.0000  -0.0000  -0.0000  -0.0000

          k = 0.0000 0.2000 0.0000 (  5363 PWs)   bands (ev):

   -79.3897 -79.3897 -79.3886 -79.3886 -46.2312 -46.2312 -46.2225 -46.2225
   -32.7678 -32.7678 -32.7580 -32.7580 -32.6287 -32.6287 -32.6183 -32.6183
    -6.9218  -6.9218  -5.9034  -5.9034  -5.1262  -5.1262  -4.9342  -4.9342
     4.6400   4.6400   4.8011   4.8011   6.0867   6.0867   6.1767   6.1767
     6.5099   6.5099   8.4084   8.4084   8.5634   8.5634   8.7569   8.7569
     9.7151   9.7151   9.9944   9.9944  10.6538  10.6538  11.4601  11.4601
    11.5610  11.5610  11.6564  11.6564  11.9118  11.9118  12.0581  12.0581
    12.4746  12.4746  14.7619  14.7619  15.2838  15.2838  17.5396  17.5396
    17.8437  17.8437  18.5619  18.5619  19.0926  19.0926

     occupation numbers 
     1.0000   1.0000   1.0000   1.0000   1.0000   1.0000   1.0000   1.0000
     1.0000   1.0000   1.0000   1.0000   1.0000   1.0000   1.0000   1.0000
     1.0000   1.0000   1.0000   1.0000   1.0000   1.0000   1.0000   1.0000
     1.0000   1.0000   1.0000   1.0000   1.0000   1.0000   1.0000   1.0000
     1.0000   1.0000   1.0000   1.0000   1.0000   1.0000   1.0000   1.0000
     1.0000   1.0000   1.0000   1.0000   1.0000   1.0000   1.0000   1.0000
     1.0000   1.0000   1.0000   1.0000   1.0000   1.0000   1.0000   1.0000
     1.0000   1.0000  -0.0000  -0.0000  -0.0000  -0.0000  -0.0000  -0.0000
    -0.0000  -0.0000  -0.0000  -0.0000  -0.0000  -0.0000

          k = 0.0000 0.2000 0.2035 (  5372 PWs)   bands (ev):

   -79.3892 -79.3892 -79.3883 -79.3883 -46.2329 -46.2329 -46.2250 -46.2250
   -32.7755 -32.7755 -32.7657 -32.7657 -32.6368 -32.6368 -32.6218 -32.6218
    -6.7477  -6.7477  -5.7983  -5.7983  -5.2070  -5.2070  -5.0337  -5.0337
     4.8595   4.8595   4.9890   4.9890   6.2026   6.2026   6.2579   6.2579
     6.7726   6.7726   7.9304   7.9304   8.4826   8.4826   8.7507   8.7507
     9.0017   9.0017   9.9354   9.9354  10.1287  10.1287  11.2713  11.2713
    11.5232  11.5232  12.0944  12.0944  12.1425  12.1425  12.4769  12.4769
    12.8221  12.8221  14.6083  14.6083  15.5921  15.5921  16.9646  16.9646
    17.3076  17.3076  18.8065  18.8065  19.2148  19.2148

     occupation numbers 
     1.0000   1.0000   1.0000   1.0000   1.0000   1.0000   1.0000   1.0000
     1.0000   1.0000   1.0000   1.0000   1.0000   1.0000   1.0000   1.0000
     1.0000   1.0000   1.0000   1.0000   1.0000   1.0000   1.0000   1.0000
     1.0000   1.0000   1.0000   1.0000   1.0000   1.0000   1.0000   1.0000
     1.0000   1.0000   1.0000   1.0000   1.0000   1.0000   1.0000   1.0000
     1.0000   1.0000   1.0000   1.0000   1.0000   1.0000   1.0000   1.0000
     1.0000   1.0000   1.0000   1.0000   1.0000   1.0000   1.0000   1.0000
     1.0000   1.0000  -0.0000  -0.0000  -0.0000  -0.0000  -0.0000  -0.0000
    -0.0000  -0.0000  -0.0000  -0.0000  -0.0000  -0.0000

          k = 0.0000 0.2000 0.4071 (  5387 PWs)   bands (ev):

   -79.3881 -79.3881 -79.3874 -79.3874 -46.2364 -46.2364 -46.2309 -46.2309
   -32.7998 -32.7998 -32.7844 -32.7844 -32.6470 -32.6470 -32.6284 -32.6284
    -6.3187  -6.3187  -5.6209  -5.6209  -5.3545  -5.3545  -5.2328  -5.2328
     5.3677   5.3677   5.4454   5.4454   6.4032   6.4032   6.5825   6.5825
     6.9617   6.9617   7.4318   7.4318   7.4917   7.4917   8.8437   8.8437
     9.1896   9.1896   9.3810   9.3810   9.5560   9.5560  10.6870  10.6870
    11.5955  11.5955  12.1646  12.1646  12.3611  12.3611  13.0910  13.0910
    13.5203  13.5203  14.2836  14.2836  15.9482  15.9482  16.0916  16.0916
    16.7918  16.7918  18.1652  18.1652  20.6121  20.6121

     occupation numbers 
     1.0000   1.0000   1.0000   1.0000   1.0000   1.0000   1.0000   1.0000
     1.0000   1.0000   1.0000   1.0000   1.0000   1.0000   1.0000   1.0000
     1.0000   1.0000   1.0000   1.0000   1.0000   1.0000   1.0000   1.0000
     1.0000   1.0000   1.0000   1.0000   1.0000   1.0000   1.0000   1.0000
     1.0000   1.0000   1.0000   1.0000   1.0000   1.0000   1.0000   1.0000
     1.0000   1.0000   1.0000   1.0000   1.0000   1.0000   1.0000   1.0000
     1.0000   1.0000   1.0000   1.0000   1.0000   1.0000   1.0000   1.0000
     1.0000   1.0000  -0.0000  -0.0000  -0.0000  -0.0000  -0.0000  -0.0000
    -0.0000  -0.0000  -0.0000  -0.0000  -0.0000  -0.0000

          k = 0.0000 0.2000 0.6106 (  5369 PWs)   bands (ev):

   -79.3871 -79.3871 -79.3868 -79.3868 -46.2386 -46.2386 -46.2364 -46.2364
   -32.8220 -32.8220 -32.8039 -32.8039 -32.6474 -32.6474 -32.6338 -32.6338
    -5.8943  -5.8943  -5.6811  -5.6811  -5.4074  -5.4074  -5.2961  -5.2961
     5.6655   5.6655   5.8529   5.8529   6.0316   6.0316   6.4387   6.4387
     7.3533   7.3533   7.4723   7.4723   8.1535   8.1535   8.4361   8.4361
     8.6364   8.6364   9.4206   9.4206   9.7102   9.7102   9.7721   9.7721
    11.8540  11.8540  12.0238  12.0238  12.3168  12.3168  12.9696  12.9696
    13.9981  13.9981  14.3284  14.3284  15.5053  15.5053  15.6388  15.6388
    17.1797  17.1797  17.6401  17.6401  22.2236  22.2236

     occupation numbers 
     1.0000   1.0000   1.0000   1.0000   1.0000   1.0000   1.0000   1.0000
     1.0000   1.0000   1.0000   1.0000   1.0000   1.0000   1.0000   1.0000
     1.0000   1.0000   1.0000   1.0000   1.0000   1.0000   1.0000   1.0000
     1.0000   1.0000   1.0000   1.0000   1.0000   1.0000   1.0000   1.0000
     1.0000   1.0000   1.0000   1.0000   1.0000   1.0000   1.0000   1.0000
     1.0000   1.0000   1.0000   1.0000   1.0000   1.0000   1.0000   1.0000
     1.0000   1.0000   1.0000   1.0000   1.0000   1.0000   1.0000   1.0000
    -0.0342  -0.0342  -0.0000  -0.0000  -0.0000  -0.0000  -0.0000  -0.0000
    -0.0000  -0.0000  -0.0000  -0.0000  -0.0000  -0.0000

          k = 0.0000 0.4000 0.0000 (  5370 PWs)   bands (ev):

   -79.3894 -79.3894 -79.3890 -79.3890 -46.2285 -46.2285 -46.2252 -46.2252
   -32.7630 -32.7630 -32.7592 -32.7592 -32.6276 -32.6276 -32.6237 -32.6237
    -6.5220  -6.5220  -6.0589  -6.0589  -5.2990  -5.2990  -5.1657  -5.1657
     5.4184   5.4184   5.4771   5.4771   6.1973   6.1973   6.2322   6.2322
     7.1977   7.1977   7.5490   7.5490   7.5822   7.5822   8.5281   8.5281
     8.6645   8.6645   9.0073   9.0073  10.6795  10.6795  11.0425  11.0425
    12.0134  12.0134  12.1081  12.1081  12.3583  12.3583  12.5059  12.5059
    13.2116  13.2116  14.0518  14.0518  16.6445  16.6445  17.2995  17.2995
    17.4767  17.4767  18.1010  18.1010  20.0242  20.0242

     occupation numbers 
     1.0000   1.0000   1.0000   1.0000   1.0000   1.0000   1.0000   1.0000
     1.0000   1.0000   1.0000   1.0000   1.0000   1.0000   1.0000   1.0000
     1.0000   1.0000   1.0000   1.0000   1.0000   1.0000   1.0000   1.0000
     1.0000   1.0000   1.0000   1.0000   1.0000   1.0000   1.0000   1.0000
     1.0000   1.0000   1.0000   1.0000   1.0000   1.0000   1.0000   1.0000
     1.0000   1.0000   1.0000   1.0000   1.0000   1.0000   1.0000   1.0000
     1.0000   1.0000   1.0000   1.0000   1.0000   1.0000   1.0000   1.0000
     1.0000   1.0000  -0.0100  -0.0100  -0.0000  -0.0000  -0.0000  -0.0000
    -0.0000  -0.0000  -0.0000  -0.0000  -0.0000  -0.0000

          k = 0.0000 0.4000 0.2035 (  5372 PWs)   bands (ev):

   -79.3889 -79.3889 -79.3885 -79.3885 -46.2305 -46.2305 -46.2274 -46.2274
   -32.7762 -32.7762 -32.7621 -32.7621 -32.6364 -32.6364 -32.6256 -32.6256
    -6.3700  -6.3700  -5.9221  -5.9221  -5.3822  -5.3822  -5.2413  -5.2413
     5.5792   5.5792   5.6882   5.6882   6.2029   6.2029   6.2667   6.2667
     7.2793   7.2793   7.6974   7.6974   7.8286   7.8286   7.9610   7.9610
     8.1218   8.1218   9.0582   9.0582  10.5947  10.5947  10.9543  10.9543
    11.9706  11.9706  12.1475  12.1475  12.5983  12.5983  12.8021  12.8021
    13.3111  13.3111  13.9914  13.9914  16.4610  16.4610  16.6885  16.6885
    17.1602  17.1602  18.1173  18.1173  20.5723  20.5723

     occupation numbers 
     1.0000   1.0000   1.0000   1.0000   1.0000   1.0000   1.0000   1.0000
     1.0000   1.0000   1.0000   1.0000   1.0000   1.0000   1.0000   1.0000
     1.0000   1.0000   1.0000   1.0000   1.0000   1.0000   1.0000   1.0000
     1.0000   1.0000   1.0000   1.0000   1.0000   1.0000   1.0000   1.0000
     1.0000   1.0000   1.0000   1.0000   1.0000   1.0000   1.0000   1.0000
     1.0000   1.0000   1.0000   1.0000   1.0000   1.0000   1.0000   1.0000
     1.0000   1.0000   1.0000   1.0000   1.0000   1.0000   1.0000   1.0000
     1.0000   1.0000  -0.0289  -0.0289  -0.0000  -0.0000  -0.0000  -0.0000
    -0.0000  -0.0000  -0.0000  -0.0000  -0.0000  -0.0000

          k = 0.0000 0.4000 0.4071 (  5373 PWs)   bands (ev):

   -79.3879 -79.3879 -79.3876 -79.3876 -46.2349 -46.2349 -46.2324 -46.2324
   -32.8040 -32.8040 -32.7794 -32.7794 -32.6471 -32.6471 -32.6296 -32.6296
    -6.0354  -6.0354  -5.6776  -5.6776  -5.5139  -5.5139  -5.3546  -5.3546
     5.8337   5.8337   5.9244   5.9244   6.3268   6.3268   6.5714   6.5714
     6.6986   6.6986   6.9256   6.9256   8.0658   8.0658   8.3962   8.3962
     8.6355   8.6355   9.1668   9.1668  10.0374  10.0374  10.6681  10.6681
    11.5954  11.5954  12.2428  12.2428  12.5201  12.5201  12.8292  12.8292
    13.6732  13.6732  14.1386  14.1386  15.5794  15.5794  15.7550  15.7550
    17.5174  17.5174  18.1967  18.1967  21.6041  21.6041

     occupation numbers 
     1.0000   1.0000   1.0000   1.0000   1.0000   1.0000   1.0000   1.0000
     1.0000   1.0000   1.0000   1.0000   1.0000   1.0000   1.0000   1.0000
     1.0000   1.0000   1.0000   1.0000   1.0000   1.0000   1.0000   1.0000
     1.0000   1.0000   1.0000   1.0000   1.0000   1.0000   1.0000   1.0000
     1.0000   1.0000   1.0000   1.0000   1.0000   1.0000   1.0000   1.0000
     1.0000   1.0000   1.0000   1.0000   1.0000   1.0000   1.0000   1.0000
     1.0000   1.0000   1.0000   1.0000   1.0000   1.0000   1.0000   1.0000
     1.0000   1.0000  -0.0000  -0.0000  -0.0000  -0.0000  -0.0000  -0.0000
    -0.0000  -0.0000  -0.0000  -0.0000  -0.0000  -0.0000

          k = 0.0000 0.4000 0.6106 (  5367 PWs)   bands (ev):

   -79.3870 -79.3870 -79.3869 -79.3869 -46.2385 -46.2385 -46.2365 -46.2365
   -32.8277 -32.8277 -32.7986 -32.7986 -32.6502 -32.6502 -32.6311 -32.6311
    -5.8464  -5.8464  -5.7717  -5.7717  -5.4021  -5.4021  -5.2469  -5.2469
     5.5757   5.5757   5.6411   5.6411   6.1282   6.1282   6.2173   6.2173
     7.3895   7.3895   7.8683   7.8683   8.1655   8.1655   8.7486   8.7486
     8.9430   8.9430   9.1055   9.1055   9.8852   9.8852  10.5563  10.5563
    11.2185  11.2185  11.7354  11.7354  12.0087  12.0087  12.3744  12.3744
    14.0895  14.0895  14.4526  14.4526  15.0933  15.0933  15.2000  15.2000
    18.0071  18.0071  18.2851  18.2851  22.6661  22.6661

     occupation numbers 
     1.0000   1.0000   1.0000   1.0000   1.0000   1.0000   1.0000   1.0000
     1.0000   1.0000   1.0000   1.0000   1.0000   1.0000   1.0000   1.0000
     1.0000   1.0000   1.0000   1.0000   1.0000   1.0000   1.0000   1.0000
     1.0000   1.0000   1.0000   1.0000   1.0000   1.0000   1.0000   1.0000
     1.0000   1.0000   1.0000   1.0000   1.0000   1.0000   1.0000   1.0000
     1.0000   1.0000   1.0000   1.0000   1.0000   1.0000   1.0000   1.0000
     1.0000   1.0000   1.0000   1.0000   1.0000   1.0000   1.0000   1.0000
    -0.0013  -0.0013  -0.0000  -0.0000  -0.0000  -0.0000  -0.0000  -0.0000
    -0.0000  -0.0000  -0.0000  -0.0000  -0.0000  -0.0000

          k = 0.2000 0.2000 0.0000 (  5377 PWs)   bands (ev):

   -79.3896 -79.3896 -79.3887 -79.3887 -46.2304 -46.2304 -46.2233 -46.2233
   -32.7667 -32.7667 -32.7583 -32.7583 -32.6285 -32.6285 -32.6197 -32.6197
    -6.8108  -6.8108  -5.9253  -5.9253  -5.2597  -5.2597  -4.9310  -4.9310
     4.3986   4.3986   5.4707   5.4707   6.0590   6.0590   6.2314   6.2314
     6.7417   6.7417   7.5125   7.5125   8.6082   8.6082   8.9640   8.9640
     9.7339   9.7339  10.0203  10.0203  10.2560  10.2560  11.1490  11.1490
    11.2973  11.2973  11.6588  11.6588  12.1254  12.1254  12.4119  12.4119
    12.8421  12.8421  14.6068  14.6068  15.4296  15.4296  17.3627  17.3627
    17.8755  17.8755  18.7037  18.7037  19.2631  19.2631

     occupation numbers 
     1.0000   1.0000   1.0000   1.0000   1.0000   1.0000   1.0000   1.0000
     1.0000   1.0000   1.0000   1.0000   1.0000   1.0000   1.0000   1.0000
     1.0000   1.0000   1.0000   1.0000   1.0000   1.0000   1.0000   1.0000
     1.0000   1.0000   1.0000   1.0000   1.0000   1.0000   1.0000   1.0000
     1.0000   1.0000   1.0000   1.0000   1.0000   1.0000   1.0000   1.0000
     1.0000   1.0000   1.0000   1.0000   1.0000   1.0000   1.0000   1.0000
     1.0000   1.0000   1.0000   1.0000   1.0000   1.0000   1.0000   1.0000
     1.0000   1.0000  -0.0000  -0.0000  -0.0000  -0.0000  -0.0000  -0.0000
    -0.0000  -0.0000  -0.0000  -0.0000  -0.0000  -0.0000

          k = 0.2000 0.2000 0.2035 (  5375 PWs)   bands (ev):

   -79.3891 -79.3891 -79.3883 -79.3883 -46.2321 -46.2321 -46.2258 -46.2258
   -32.7756 -32.7756 -32.7649 -32.7649 -32.6363 -32.6363 -32.6231 -32.6231
    -6.6428  -6.6428  -5.8046  -5.8046  -5.3417  -5.3417  -5.0301  -5.0301
     4.6210   4.6210   5.6415   5.6415   6.1017   6.1017   6.2962   6.2962
     7.0185   7.0185   7.6816   7.6816   7.9061   7.9061   8.7909   8.7909
     9.1161   9.1161   9.9051   9.9051  10.2645  10.2645  10.9041  10.9041
    11.5584  11.5584  11.8132  11.8132  12.2950  12.2950  12.7216  12.7216
    13.1034  13.1034  14.4424  14.4424  15.7622  15.7622  16.6955  16.6955
    17.4149  17.4149  18.5672  18.5672  19.7919  19.7919

     occupation numbers 
     1.0000   1.0000   1.0000   1.0000   1.0000   1.0000   1.0000   1.0000
     1.0000   1.0000   1.0000   1.0000   1.0000   1.0000   1.0000   1.0000
     1.0000   1.0000   1.0000   1.0000   1.0000   1.0000   1.0000   1.0000
     1.0000   1.0000   1.0000   1.0000   1.0000   1.0000   1.0000   1.0000
     1.0000   1.0000   1.0000   1.0000   1.0000   1.0000   1.0000   1.0000
     1.0000   1.0000   1.0000   1.0000   1.0000   1.0000   1.0000   1.0000
     1.0000   1.0000   1.0000   1.0000   1.0000   1.0000   1.0000   1.0000
     1.0000   1.0000  -0.0000  -0.0000  -0.0000  -0.0000  -0.0000  -0.0000
    -0.0000  -0.0000  -0.0000  -0.0000  -0.0000  -0.0000

          k = 0.2000 0.2000 0.4071 (  5372 PWs)   bands (ev):

   -79.3880 -79.3880 -79.3875 -79.3875 -46.2359 -46.2359 -46.2314 -46.2314
   -32.8008 -32.8008 -32.7833 -32.7833 -32.6465 -32.6465 -32.6293 -32.6293
    -6.2361  -6.2361  -5.5972  -5.5972  -5.4668  -5.4668  -5.2381  -5.2381
     5.1888   5.1888   5.8897   5.8897   6.2719   6.2719   6.4873   6.4873
     6.8595   6.8595   7.5507   7.5507   7.6969   7.6969   8.4412   8.4412
     8.9756   8.9756   9.5757   9.5757   9.7764   9.7764  10.9166  10.9166
    11.3730  11.3730  12.0169  12.0169  12.5312  12.5312  13.0556  13.0556
    13.4946  13.4946  14.2237  14.2237  15.6241  15.6241  16.3818  16.3818
    16.7811  16.7811  18.2024  18.2024  20.9589  20.9589

     occupation numbers 
     1.0000   1.0000   1.0000   1.0000   1.0000   1.0000   1.0000   1.0000
     1.0000   1.0000   1.0000   1.0000   1.0000   1.0000   1.0000   1.0000
     1.0000   1.0000   1.0000   1.0000   1.0000   1.0000   1.0000   1.0000
     1.0000   1.0000   1.0000   1.0000   1.0000   1.0000   1.0000   1.0000
     1.0000   1.0000   1.0000   1.0000   1.0000   1.0000   1.0000   1.0000
     1.0000   1.0000   1.0000   1.0000   1.0000   1.0000   1.0000   1.0000
     1.0000   1.0000   1.0000   1.0000   1.0000   1.0000   1.0000   1.0000
     1.0000   1.0000  -0.0000  -0.0000  -0.0000  -0.0000  -0.0000  -0.0000
    -0.0000  -0.0000  -0.0000  -0.0000  -0.0000  -0.0000

          k = 0.2000 0.2000 0.6106 (  5359 PWs)   bands (ev):

   -79.3871 -79.3871 -79.3869 -79.3869 -46.2385 -46.2385 -46.2365 -46.2365
   -32.8234 -32.8234 -32.8027 -32.8027 -32.6479 -32.6479 -32.6334 -32.6334
    -5.8743  -5.8743  -5.6766  -5.6766  -5.4412  -5.4412  -5.2792  -5.2792
     5.6341   5.6341   5.8075   5.8075   6.0822   6.0822   6.5213   6.5213
     6.6566   6.6566   7.8832   7.8832   8.2813   8.2813   8.6542   8.6542
     8.8080   8.8080   9.1798   9.1798   9.6649   9.6649  10.1573  10.1573
    11.7538  11.7538  11.9692  11.9692  12.1826  12.1826  13.0784  13.0784
    13.5604  13.5604  14.4891  14.4891  15.0826  15.0826  16.1477  16.1477
    16.8821  16.8821  18.0218  18.0218  22.3361  22.3361

     occupation numbers 
     1.0000   1.0000   1.0000   1.0000   1.0000   1.0000   1.0000   1.0000
     1.0000   1.0000   1.0000   1.0000   1.0000   1.0000   1.0000   1.0000
     1.0000   1.0000   1.0000   1.0000   1.0000   1.0000   1.0000   1.0000
     1.0000   1.0000   1.0000   1.0000   1.0000   1.0000   1.0000   1.0000
     1.0000   1.0000   1.0000   1.0000   1.0000   1.0000   1.0000   1.0000
     1.0000   1.0000   1.0000   1.0000   1.0000   1.0000   1.0000   1.0000
     1.0000   1.0000   1.0000   1.0000   1.0000   1.0000   1.0000   1.0000
     1.0000   1.0000  -0.0000  -0.0000  -0.0000  -0.0000  -0.0000  -0.0000
    -0.0000  -0.0000  -0.0000  -0.0000  -0.0000  -0.0000

          k = 0.2000 0.4000 0.0000 (  5398 PWs)   bands (ev):

   -79.3893 -79.3893 -79.3890 -79.3890 -46.2282 -46.2282 -46.2255 -46.2255
   -32.7636 -32.7636 -32.7601 -32.7601 -32.6268 -32.6268 -32.6232 -32.6232
    -6.5138  -6.5138  -6.1448  -6.1448  -5.2641  -5.2641  -5.0726  -5.0726
     4.7188   4.7188   5.4449   5.4449   6.0930   6.0930   6.1995   6.1995
     7.3629   7.3629   7.6244   7.6244   8.3851   8.3851   8.7578   8.7578
     9.1127   9.1127   9.2987   9.2987  10.2014  10.2014  10.7532  10.7532
    11.6620  11.6620  11.9578  11.9578  12.1499  12.1499  12.4553  12.4553
    13.4634  13.4634  14.1202  14.1202  16.3045  16.3045  17.3691  17.3691
    17.5068  17.5068  17.8689  17.8689  20.6004  20.6004

     occupation numbers 
     1.0000   1.0000   1.0000   1.0000   1.0000   1.0000   1.0000   1.0000
     1.0000   1.0000   1.0000   1.0000   1.0000   1.0000   1.0000   1.0000
     1.0000   1.0000   1.0000   1.0000   1.0000   1.0000   1.0000   1.0000
     1.0000   1.0000   1.0000   1.0000   1.0000   1.0000   1.0000   1.0000
     1.0000   1.0000   1.0000   1.0000   1.0000   1.0000   1.0000   1.0000
     1.0000   1.0000   1.0000   1.0000   1.0000   1.0000   1.0000   1.0000
     1.0000   1.0000   1.0000   1.0000   1.0000   1.0000   1.0000   1.0000
     1.0000   1.0000  -0.0001  -0.0001  -0.0000  -0.0000  -0.0000  -0.0000
    -0.0000  -0.0000  -0.0000  -0.0000  -0.0000  -0.0000

          k = 0.2000 0.4000 0.2035 (  5382 PWs)   bands (ev):

   -79.3889 -79.3889 -79.3886 -79.3886 -46.2302 -46.2302 -46.2277 -46.2277
   -32.7757 -32.7757 -32.7639 -32.7639 -32.6350 -32.6350 -32.6260 -32.6260
    -6.3626  -6.3626  -6.0092  -6.0092  -5.3428  -5.3428  -5.1583  -5.1583
     4.9174   4.9174   5.6408   5.6408   6.1138   6.1138   6.1906   6.1906
     7.5561   7.5561   7.8046   7.8046   7.9945   7.9945   8.3899   8.3899
     8.7980   8.7980   9.2638   9.2638  10.2072  10.2072  10.5471  10.5471
    11.8762  11.8762  12.0435  12.0435  12.4074  12.4074  12.7575  12.7575
    13.4423  13.4423  13.9871  13.9871  16.4014  16.4014  16.7533  16.7533
    17.2462  17.2462  17.8257  17.8258  21.0206  21.0206

     occupation numbers 
     1.0000   1.0000   1.0000   1.0000   1.0000   1.0000   1.0000   1.0000
     1.0000   1.0000   1.0000   1.0000   1.0000   1.0000   1.0000   1.0000
     1.0000   1.0000   1.0000   1.0000   1.0000   1.0000   1.0000   1.0000
     1.0000   1.0000   1.0000   1.0000   1.0000   1.0000   1.0000   1.0000
     1.0000   1.0000   1.0000   1.0000   1.0000   1.0000   1.0000   1.0000
     1.0000   1.0000   1.0000   1.0000   1.0000   1.0000   1.0000   1.0000
     1.0000   1.0000   1.0000   1.0000   1.0000   1.0000   1.0000   1.0000
     1.0000   1.0000  -0.0226  -0.0226  -0.0000  -0.0000  -0.0000  -0.0000
    -0.0000  -0.0000  -0.0000  -0.0000  -0.0000  -0.0000

          k = 0.2000 0.4000 0.4071 (  5365 PWs)   bands (ev):

   -79.3879 -79.3879 -79.3876 -79.3876 -46.2347 -46.2347 -46.2327 -46.2327
   -32.8022 -32.8022 -32.7818 -32.7818 -32.6455 -32.6455 -32.6310 -32.6310
    -6.0195  -6.0195  -5.7478  -5.7478  -5.4702  -5.4702  -5.3195  -5.3195
     5.3809   5.3809   5.8590   5.8590   6.2361   6.2361   6.4363   6.4363
     6.7640   6.7640   7.3050   7.3050   8.2597   8.2597   8.5448   8.5448
     9.0140   9.0140   9.1372   9.1372   9.9357   9.9357  10.5152  10.5152
    11.7636  11.7636  12.1740  12.1740  12.4903  12.4903  12.7904  12.7904
    13.5608  13.5608  14.0043  14.0043  15.6590  15.6590  16.1380  16.1380
    17.2996  17.2996  17.9645  17.9645  21.8371  21.8371

     occupation numbers 
     1.0000   1.0000   1.0000   1.0000   1.0000   1.0000   1.0000   1.0000
     1.0000   1.0000   1.0000   1.0000   1.0000   1.0000   1.0000   1.0000
     1.0000   1.0000   1.0000   1.0000   1.0000   1.0000   1.0000   1.0000
     1.0000   1.0000   1.0000   1.0000   1.0000   1.0000   1.0000   1.0000
     1.0000   1.0000   1.0000   1.0000   1.0000   1.0000   1.0000   1.0000
     1.0000   1.0000   1.0000   1.0000   1.0000   1.0000   1.0000   1.0000
     1.0000   1.0000   1.0000   1.0000   1.0000   1.0000   1.0000   1.0000
     1.0000   1.0000  -0.0355  -0.0355  -0.0000  -0.0000  -0.0000  -0.0000
    -0.0000  -0.0000  -0.0000  -0.0000  -0.0000  -0.0000

          k = 0.2000 0.4000 0.6106 (  5358 PWs)   bands (ev):

   -79.3870 -79.3870 -79.3869 -79.3869 -46.2383 -46.2383 -46.2367 -46.2367
   -32.8252 -32.8252 -32.8011 -32.8011 -32.6487 -32.6487 -32.6328 -32.6328
    -5.8134  -5.8134  -5.7250  -5.7250  -5.4380  -5.4380  -5.2824  -5.2824
     5.5729   5.5729   5.7268   5.7268   6.0810   6.0810   6.2046   6.2046
     7.0145   7.0145   7.6573   7.6573   8.2919   8.2919   8.5074   8.5074
     9.0816   9.0816   9.4703   9.4703   9.9949   9.9949  10.7153  10.7153
    11.3271  11.3271  11.9292  11.9292  12.0491  12.0491  12.4630  12.4630
    13.7905  13.7905  14.3355  14.3355  15.1263  15.1263  15.6266  15.6266
    17.5929  17.5929  18.1383  18.1383  22.7166  22.7166

     occupation numbers 
     1.0000   1.0000   1.0000   1.0000   1.0000   1.0000   1.0000   1.0000
     1.0000   1.0000   1.0000   1.0000   1.0000   1.0000   1.0000   1.0000
     1.0000   1.0000   1.0000   1.0000   1.0000   1.0000   1.0000   1.0000
     1.0000   1.0000   1.0000   1.0000   1.0000   1.0000   1.0000   1.0000
     1.0000   1.0000   1.0000   1.0000   1.0000   1.0000   1.0000   1.0000
     1.0000   1.0000   1.0000   1.0000   1.0000   1.0000   1.0000   1.0000
     1.0000   1.0000   1.0000   1.0000   1.0000   1.0000   1.0000   1.0000
     1.0105   1.0105  -0.0000  -0.0000  -0.0000  -0.0000  -0.0000  -0.0000
    -0.0000  -0.0000  -0.0000  -0.0000  -0.0000  -0.0000

          k = 0.4000 0.4000 0.0000 (  5386 PWs)   bands (ev):

   -79.3892 -79.3892 -79.3891 -79.3891 -46.2274 -46.2274 -46.2264 -46.2264
   -32.7638 -32.7638 -32.7623 -32.7623 -32.6248 -32.6248 -32.6232 -32.6232
    -6.4564  -6.4564  -6.3195  -6.3195  -5.1185  -5.1185  -5.0188  -5.0188
     4.4019   4.4019   4.7163   4.7163   6.0190   6.0190   6.0698   6.0698
     8.0127   8.0127   8.5146   8.5146   8.7769   8.7769   9.1841   9.1841
     9.4924   9.4924   9.6091   9.6091   9.7946   9.7946  10.4895  10.4895
    11.1508  11.1508  11.5557  11.5557  11.8217  11.8217  12.0474  12.0474
    13.8770  13.8770  14.1120  14.1120  16.1343  16.1343  16.6722  16.6722
    17.7454  17.7454  17.9370  17.9370  21.6431  21.6431

     occupation numbers 
     1.0000   1.0000   1.0000   1.0000   1.0000   1.0000   1.0000   1.0000
     1.0000   1.0000   1.0000   1.0000   1.0000   1.0000   1.0000   1.0000
     1.0000   1.0000   1.0000   1.0000   1.0000   1.0000   1.0000   1.0000
     1.0000   1.0000   1.0000   1.0000   1.0000   1.0000   1.0000   1.0000
     1.0000   1.0000   1.0000   1.0000   1.0000   1.0000   1.0000   1.0000
     1.0000   1.0000   1.0000   1.0000   1.0000   1.0000   1.0000   1.0000
     1.0000   1.0000   1.0000   1.0000   1.0000   1.0000   1.0000   1.0000
     0.9375   0.9375  -0.0003  -0.0003  -0.0000  -0.0000  -0.0000  -0.0000
    -0.0000  -0.0000  -0.0000  -0.0000  -0.0000  -0.0000

          k = 0.4000 0.4000 0.2035 (  5398 PWs)   bands (ev):

   -79.3888 -79.3888 -79.3887 -79.3887 -46.2295 -46.2295 -46.2285 -46.2285
   -32.7738 -32.7738 -32.7677 -32.7677 -32.6319 -32.6319 -32.6275 -32.6275
    -6.3090  -6.3090  -6.1793  -6.1793  -5.2040  -5.2040  -5.1109  -5.1109
     4.6163   4.6163   4.9155   4.9155   6.0250   6.0250   6.0861   6.0861
     8.2263   8.2263   8.3266   8.3266   8.7147   8.7147   8.9097   8.9097
     9.0206   9.0206   9.6234   9.6234   9.6839   9.6839   9.8768   9.8768
    11.5890  11.5890  11.9129  11.9129  12.2338  12.2338  12.3658  12.3658
    13.7121  13.7121  13.9089  13.9089  16.3839  16.3839  16.7522  16.7522
    17.3367  17.3367  17.5282  17.5282  21.9158  21.9158

     occupation numbers 
     1.0000   1.0000   1.0000   1.0000   1.0000   1.0000   1.0000   1.0000
     1.0000   1.0000   1.0000   1.0000   1.0000   1.0000   1.0000   1.0000
     1.0000   1.0000   1.0000   1.0000   1.0000   1.0000   1.0000   1.0000
     1.0000   1.0000   1.0000   1.0000   1.0000   1.0000   1.0000   1.0000
     1.0000   1.0000   1.0000   1.0000   1.0000   1.0000   1.0000   1.0000
     1.0000   1.0000   1.0000   1.0000   1.0000   1.0000   1.0000   1.0000
     1.0000   1.0000   1.0000   1.0000   1.0000   1.0000   1.0000   1.0000
     1.0001   1.0001   0.6427   0.6427  -0.0000  -0.0000  -0.0000  -0.0000
    -0.0000  -0.0000  -0.0000  -0.0000  -0.0000  -0.0000

          k = 0.4000 0.4000 0.4071 (  5361 PWs)   bands (ev):

   -79.3878 -79.3878 -79.3877 -79.3877 -46.2342 -46.2342 -46.2333 -46.2333
   -32.7978 -32.7978 -32.7871 -32.7871 -32.6417 -32.6417 -32.6343 -32.6343
    -5.9658  -5.9658  -5.8690  -5.8690  -5.3772  -5.3772  -5.3050  -5.3050
     5.1563   5.1563   5.3669   5.3669   6.1080   6.1080   6.1927   6.1927
     7.2733   7.2733   7.5631   7.5631   8.5903   8.5903   8.8401   8.8401
     9.1440   9.1440   9.3616   9.3616   9.8014   9.8014  10.2492  10.2492
    11.9281  11.9281  12.1265  12.1265  12.5056  12.5056  12.8355  12.8355
    13.3410  13.3410  13.6752  13.6752  16.1279  16.1279  16.5196  16.5196
    17.0245  17.0245  17.4340  17.4340  22.3960  22.3961

     occupation numbers 
     1.0000   1.0000   1.0000   1.0000   1.0000   1.0000   1.0000   1.0000
     1.0000   1.0000   1.0000   1.0000   1.0000   1.0000   1.0000   1.0000
     1.0000   1.0000   1.0000   1.0000   1.0000   1.0000   1.0000   1.0000
     1.0000   1.0000   1.0000   1.0000   1.0000   1.0000   1.0000   1.0000
     1.0000   1.0000   1.0000   1.0000   1.0000   1.0000   1.0000   1.0000
     1.0000   1.0000   1.0000   1.0000   1.0000   1.0000   1.0000   1.0000
     1.0000   1.0000   1.0000   1.0000   1.0000   1.0000   1.0000   1.0000
     1.0000   1.0000   1.0000   1.0000  -0.0000  -0.0000  -0.0000  -0.0000
    -0.0000  -0.0000  -0.0000  -0.0000  -0.0000  -0.0000

          k = 0.4000 0.4000 0.6106 (  5362 PWs)   bands (ev):

   -79.3870 -79.3870 -79.3870 -79.3870 -46.2379 -46.2379 -46.2371 -46.2371
   -32.8195 -32.8195 -32.8068 -32.8068 -32.6452 -32.6452 -32.6368 -32.6368
    -5.7273  -5.7273  -5.6535  -5.6535  -5.4912  -5.4912  -5.3734  -5.3734
     5.6150   5.6150   5.7267   5.7267   6.0582   6.0582   6.3052   6.3052
     6.6747   6.6747   7.1626   7.1626   8.2821   8.2821   8.3835   8.3835
     9.4529   9.4529   9.6292   9.6292  10.3592  10.3592  10.6951  10.6951
    11.8355  11.8355  11.9606  11.9606  12.2314  12.2314  12.7916  12.7916
    13.3113  13.3113  13.8932  13.8932  15.6096  15.6096  16.1283  16.1283
    17.0499  17.0499  17.5813  17.5813  22.8853  22.8856

     occupation numbers 
     1.0000   1.0000   1.0000   1.0000   1.0000   1.0000   1.0000   1.0000
     1.0000   1.0000   1.0000   1.0000   1.0000   1.0000   1.0000   1.0000
     1.0000   1.0000   1.0000   1.0000   1.0000   1.0000   1.0000   1.0000
     1.0000   1.0000   1.0000   1.0000   1.0000   1.0000   1.0000   1.0000
     1.0000   1.0000   1.0000   1.0000   1.0000   1.0000   1.0000   1.0000
     1.0000   1.0000   1.0000   1.0000   1.0000   1.0000   1.0000   1.0000
     1.0000   1.0000   1.0000   1.0000   1.0000   1.0000   1.0000   1.0000
     1.0000   1.0000   0.8121   0.8121  -0.0000  -0.0000  -0.0000  -0.0000
    -0.0000  -0.0000  -0.0000  -0.0000  -0.0000  -0.0000

     the Fermi energy is    13.9206 ev

!    total energy              =    -553.08028745 Ry
     estimated scf accuracy    <          2.6E-11 Ry
     smearing contrib. (-TS)   =       0.00009189 Ry
     internal energy E=F+TS    =    -553.08037933 Ry

     The total energy is F=E-TS. E is the sum of the following terms:
     one-electron contribution =    -190.90707086 Ry
     hartree contribution      =     122.72795958 Ry
     xc contribution           =     -69.91525753 Ry
     ewald contribution        =    -414.98601052 Ry

     convergence has been achieved in  10 iterations

     Forces acting on atoms (cartesian axes, Ry/au):

     atom    1 type  2   force =     0.00000000    0.00000000   -0.00000000
     atom    2 type  2   force =     0.00000000    0.00000000    0.00000000
     atom    3 type  1   force =     0.00112857   -0.00112857    0.00000000
     atom    4 type  1   force =    -0.00112857   -0.00112857   -0.00000000
     atom    5 type  1   force =     0.00112857    0.00112857   -0.00000000
     atom    6 type  1   force =    -0.00112857    0.00112857    0.00000000
     The non-local contrib.  to forces
     atom    1 type  2   force =     0.00000000    0.00000000    0.00000000
     atom    2 type  2   force =     0.00000000    0.00000000    0.00000000
     atom    3 type  1   force =    -0.05385333    0.05385333    0.00000000
     atom    4 type  1   force =     0.05385333    0.05385333    0.00000000
     atom    5 type  1   force =    -0.05385333   -0.05385333    0.00000000
     atom    6 type  1   force =     0.05385333   -0.05385333    0.00000000
     The ionic contribution  to forces
     atom    1 type  2   force =    -0.00000000   -0.00000000    0.00000000
     atom    2 type  2   force =     0.00000000    0.00000000   -0.00000000
     atom    3 type  1   force =     1.42937233   -1.42937233    0.00000000
     atom    4 type  1   force =    -1.42937233   -1.42937233   -0.00000000
     atom    5 type  1   force =     1.42937233    1.42937233   -0.00000000
     atom    6 type  1   force =    -1.42937233    1.42937233    0.00000000
     The local contribution  to forces
     atom    1 type  2   force =     0.00000000    0.00000000    0.00000000
     atom    2 type  2   force =     0.00000000    0.00000000    0.00000000
     atom    3 type  1   force =    -1.37439016    1.37439016    0.00000000
     atom    4 type  1   force =     1.37439016    1.37439016    0.00000000
     atom    5 type  1   force =    -1.37439016   -1.37439016    0.00000000
     atom    6 type  1   force =     1.37439016   -1.37439016    0.00000000
     The core correction contribution to forces
     atom    1 type  2   force =     0.00000000    0.00000000    0.00000000
     atom    2 type  2   force =     0.00000000    0.00000000    0.00000000
     atom    3 type  1   force =     0.00000000    0.00000000    0.00000000
     atom    4 type  1   force =     0.00000000    0.00000000    0.00000000
     atom    5 type  1   force =     0.00000000    0.00000000    0.00000000
     atom    6 type  1   force =     0.00000000    0.00000000    0.00000000
     The Hubbard contrib.    to forces
     atom    1 type  2   force =     0.00000000    0.00000000    0.00000000
     atom    2 type  2   force =     0.00000000    0.00000000    0.00000000
     atom    3 type  1   force =     0.00000000    0.00000000    0.00000000
     atom    4 type  1   force =     0.00000000    0.00000000    0.00000000
     atom    5 type  1   force =     0.00000000    0.00000000    0.00000000
     atom    6 type  1   force =     0.00000000    0.00000000    0.00000000
     The SCF correction term to forces
     atom    1 type  2   force =     0.00000000   -0.00000000   -0.00000000
     atom    2 type  2   force =    -0.00000000   -0.00000000    0.00000000
     atom    3 type  1   force =    -0.00000027    0.00000027    0.00000000
     atom    4 type  1   force =     0.00000027    0.00000027   -0.00000000
     atom    5 type  1   force =    -0.00000027   -0.00000027   -0.00000000
     atom    6 type  1   force =     0.00000027   -0.00000027    0.00000000

     Total force =     0.003192     Total SCF correction =     0.000001


     Computing stress (Cartesian axis) and pressure

          total   stress  (Ry/bohr**3)                   (kbar)     P=      -20.47
  -0.00011979   0.00000000   0.00000000          -17.62        0.00        0.00
   0.00000000  -0.00011979   0.00000000            0.00      -17.62        0.00
   0.00000000   0.00000000  -0.00017785            0.00        0.00      -26.16

     kinetic stress (kbar)  48454.12      0.00      0.00
                                0.00  48454.12      0.00
                                0.00      0.00  47530.20

     local   stress (kbar) -12681.39      0.00      0.00
                                0.00 -12681.39     -0.00
                                0.00     -0.00 -44408.27

     nonloc. stress (kbar)  14524.46      0.00      0.00
                                0.00  14524.46      0.00
                                0.00      0.00  14743.05

     hartree stress (kbar)   9609.67     -0.00     -0.00
                               -0.00   9609.67      0.00
                               -0.00      0.00  21379.81

     exc-cor stress (kbar)  -7288.28     -0.00     -0.00
                               -0.00  -7288.28      0.00
                               -0.00      0.00  -7263.51

     corecor stress (kbar)      0.00      0.00      0.00
                                0.00      0.00      0.00
                                0.00      0.00      0.00

     ewald   stress (kbar) -52636.21     -0.00     -0.00
                               -0.00 -52636.21     -0.00
                               -0.00     -0.00 -32007.45

     hubbard stress (kbar)      0.00      0.00      0.00
                                0.00      0.00      0.00
                                0.00      0.00      0.00

     DFT-D   stress (kbar)      0.00      0.00      0.00
                                0.00      0.00      0.00
                                0.00      0.00      0.00

     XDM     stress (kbar)      0.00      0.00      0.00
                                0.00      0.00      0.00
                                0.00      0.00      0.00

     dft-nl  stress (kbar)      0.00      0.00      0.00
                                0.00      0.00      0.00
                                0.00      0.00      0.00

     TS-vdW  stress (kbar)      0.00      0.00      0.00
                                0.00      0.00      0.00
                                0.00      0.00      0.00


                                0.00      0.00      0.00
                                0.00      0.00      0.00


                                0.00      0.00      0.00


     Writing all to output data dir tmp/espresso.save/
 
     init_run     :      2.47s CPU      1.30s WALL (       1 calls)
     electrons    :     81.10s CPU     41.52s WALL (       1 calls)
     forces       :      4.42s CPU      2.26s WALL (       1 calls)
     stress       :      6.10s CPU      3.09s WALL (       1 calls)

     Called by init_run:
     wfcinit      :      2.40s CPU      1.24s WALL (       1 calls)
     wfcinit:atom :      0.01s CPU      0.00s WALL (      24 calls)
     wfcinit:wfcr :      2.34s CPU      1.20s WALL (      24 calls)
     potinit      :      0.02s CPU      0.01s WALL (       1 calls)
     hinit0       :      0.03s CPU      0.03s WALL (       1 calls)

     Called by electrons:
     c_bands      :     74.14s CPU     37.94s WALL (      10 calls)
     sum_band     :      6.82s CPU      3.49s WALL (      10 calls)
     v_of_rho     :      0.05s CPU      0.03s WALL (      11 calls)
     v_h          :      0.00s CPU      0.00s WALL (      11 calls)
     v_xc         :      0.04s CPU      0.02s WALL (      11 calls)
     mix_rho      :      0.04s CPU      0.03s WALL (      10 calls)

     Called by c_bands:
     init_us_2    :      0.23s CPU      0.12s WALL (     552 calls)
     init_us_2:cp :      0.22s CPU      0.12s WALL (     552 calls)
     cegterg      :     68.36s CPU     34.99s WALL (     240 calls)

     Called by sum_band:
     sum_band:wei :      0.05s CPU      0.02s WALL (      10 calls)
     sum_band:loo :      6.75s CPU      3.45s WALL (      10 calls)
     sum_band:buf :      0.04s CPU      0.02s WALL (     240 calls)
     sum_band:ini :      0.07s CPU      0.04s WALL (     240 calls)

     Called by *egterg:
     cdiaghg      :      9.45s CPU      4.81s WALL (     760 calls)
     cegterg:over :      4.25s CPU      2.16s WALL (     520 calls)
     cegterg:upda :      3.33s CPU      1.69s WALL (     520 calls)
     cegterg:last :      5.88s CPU      2.99s WALL (     480 calls)
     cdiaghg:chol :      0.45s CPU      0.23s WALL (     760 calls)
     cdiaghg:inve :      0.07s CPU      0.04s WALL (     760 calls)
     cdiaghg:para :      0.99s CPU      0.50s WALL (    1520 calls)
     h_psi        :     46.01s CPU     23.62s WALL (     784 calls)
     g_psi        :      0.07s CPU      0.03s WALL (     520 calls)

     Called by h_psi:
     h_psi:calbec :      5.62s CPU      2.93s WALL (     784 calls)
     vloc_psi     :     32.30s CPU     16.58s WALL (     784 calls)
     add_vuspsi   :      7.98s CPU      4.07s WALL (     784 calls)

     General routines
     calbec       :      7.77s CPU      4.04s WALL (     904 calls)
     fft          :      0.07s CPU      0.03s WALL (     150 calls)
     ffts         :      0.01s CPU      0.01s WALL (      40 calls)
     fftw         :     36.57s CPU     18.76s WALL (  206120 calls)
 
     Parallel routines
 
     PWSCF        :   1m36.94s CPU     50.37s WALL

 
   This run was terminated on:  10:39:45  10Apr2022            

=------------------------------------------------------------------------------=
   JOB DONE.
=------------------------------------------------------------------------------=
