
     Program PWSCF v.7.0 starts on 10Apr2022 at 10:54: 1 

     This program is part of the open-source Quantum ESPRESSO suite
     for quantum simulation of materials; please cite
         "P. Giannozzi et al., J. Phys.:Condens. Matter 21 395502 (2009);
         "P. Giannozzi et al., J. Phys.:Condens. Matter 29 465901 (2017);
         "P. Giannozzi et al., J. Chem. Phys. 152 154105 (2020);
          URL http://www.quantum-espresso.org", 
     in publications or presentations arising from this work. More details at
     http://www.quantum-espresso.org/quote

     Parallel version (MPI & OpenMP), running on      64 processor cores
     Number of MPI processes:                32
     Threads/MPI process:                     2

     MPI processes distributed on     1 nodes
     R & G space division:  proc/nbgrp/npool/nimage =      32
     230668 MiB available memory on the printing compute node when the environment starts
 
     Reading input from kpoints_448.pwi
Warning: card &CELL ignored
Warning: card / ignored

     Current dimensions of program PWSCF are:
     Max number of different atomic species (ntypx) = 10
     Max number of k-points (npk) =  40000
     Max angular momentum in pseudopotentials (lmaxx) =  4

     Subspace diagonalization in iterative solution of the eigenvalue problem:
     one sub-group per band group will be used
     scalapack distributed-memory algorithm (size of sub-group:  5*  5 procs)

 
     Parallelization info
     --------------------
     sticks:   dense  smooth     PW     G-vecs:    dense   smooth      PW
     Min          58      58     17                 1342     1342     211
     Max          59      59     18                 1345     1345     214
     Sum        1885    1885    553                42999    42999    6811
 
     Using Slab Decomposition
 

     Title: 
     IrO2 Unit Cell                                                             


     bravais-lattice index     =            6
     lattice parameter (alat)  =       8.5888  a.u.
     unit-cell volume          =     444.6868 (a.u.)^3
     number of atoms/cell      =            6
     number of atomic types    =            2
     number of electrons       =        58.00
     number of Kohn-Sham states=           70
     kinetic-energy cutoff     =      80.0000  Ry
     charge density cutoff     =     320.0000  Ry
     scf convergence threshold =      1.0E-09
     mixing beta               =       0.7000
     number of iterations used =            8  plain     mixing
     Exchange-correlation= PBE
                           (   1   4   3   4   0   0   0)
     Non magnetic calculation with spin-orbit


     celldm(1)=   8.588800  celldm(2)=   0.000000  celldm(3)=   0.701870
     celldm(4)=   0.000000  celldm(5)=   0.000000  celldm(6)=   0.000000

     crystal axes: (cart. coord. in units of alat)
               a(1) = (   1.000000   0.000000   0.000000 )  
               a(2) = (   0.000000   1.000000   0.000000 )  
               a(3) = (   0.000000   0.000000   0.701870 )  

     reciprocal axes: (cart. coord. in units 2 pi/alat)
               b(1) = (  1.000000  0.000000  0.000000 )  
               b(2) = (  0.000000  1.000000  0.000000 )  
               b(3) = (  0.000000  0.000000  1.424765 )  


     PseudoPot. # 1 for O  read from file:
     ../../XX_PSEUDO/O_ONCV_PBE_fr.upf
     MD5 check sum: 59c925217d3b58c6d762355590b68b09
     Pseudo is Norm-conserving, Zval =  6.0
     Generated using ONCVPSP code by D. R. Hamann
     Using radial grid of  936 points,  6 beta functions with: 
                l(1) =   0
                l(2) =   0
                l(3) =   1
                l(4) =   1
                l(5) =   1
                l(6) =   1

     PseudoPot. # 2 for Ir read from file:
     ../../XX_PSEUDO/Ir_ONCV_PBE_fr.upf
     MD5 check sum: 924e909c4146afa09f62ee3401806954
     Pseudo is Norm-conserving, Zval = 17.0
     Generated using ONCVPSP code by D. R. Hamann
     Using radial grid of 1310 points, 14 beta functions with: 
                l(1) =   0
                l(2) =   0
                l(3) =   1
                l(4) =   1
                l(5) =   1
                l(6) =   1
                l(7) =   2
                l(8) =   2
                l(9) =   2
               l(10) =   2
               l(11) =   3
               l(12) =   3
               l(13) =   3
               l(14) =   3

     atomic species   valence    mass     pseudopotential
        O              6.00    15.99900     O ( 1.00)
        Ir            17.00   192.21700     Ir( 1.00)

     16 Sym. Ops., with inversion, found ( 8 have fractional translation)


                                    s                        frac. trans.

      isym =  1     identity                                     

 cryst.   s( 1) = (     1          0          0      )
                  (     0          1          0      )
                  (     0          0          1      )

 cart.    s( 1) = (  1.0000000  0.0000000  0.0000000 )
                  (  0.0000000  1.0000000  0.0000000 )
                  (  0.0000000  0.0000000  1.0000000 )


      isym =  2     180 deg rotation - cart. axis [0,0,1]        

 cryst.   s( 2) = (    -1          0          0      )
                  (     0         -1          0      )
                  (     0          0          1      )

 cart.    s( 2) = ( -1.0000000  0.0000000  0.0000000 )
                  (  0.0000000 -1.0000000  0.0000000 )
                  (  0.0000000  0.0000000  1.0000000 )


      isym =  3     180 deg rotation - cart. axis [0,1,0]        

 cryst.   s( 3) = (    -1          0          0      )    f =(  0.5000000 )
                  (     0          1          0      )       ( -0.5000000 )
                  (     0          0         -1      )       (  0.5000000 )

 cart.    s( 3) = ( -1.0000000  0.0000000  0.0000000 )    f =(  0.5000000 )
                  (  0.0000000  1.0000000  0.0000000 )       ( -0.5000000 )
                  (  0.0000000  0.0000000 -1.0000000 )       (  0.3509351 )


      isym =  4     180 deg rotation - cart. axis [1,0,0]        

 cryst.   s( 4) = (     1          0          0      )    f =( -0.5000000 )
                  (     0         -1          0      )       (  0.5000000 )
                  (     0          0         -1      )       (  0.5000000 )

 cart.    s( 4) = (  1.0000000  0.0000000  0.0000000 )    f =( -0.5000000 )
                  (  0.0000000 -1.0000000  0.0000000 )       (  0.5000000 )
                  (  0.0000000  0.0000000 -1.0000000 )       (  0.3509351 )


      isym =  5     180 deg rotation - cart. axis [1,1,0]        

 cryst.   s( 5) = (     0          1          0      )
                  (     1          0          0      )
                  (     0          0         -1      )

 cart.    s( 5) = (  0.0000000  1.0000000  0.0000000 )
                  (  1.0000000  0.0000000  0.0000000 )
                  (  0.0000000  0.0000000 -1.0000000 )


      isym =  6     180 deg rotation - cart. axis [1,-1,0]       

 cryst.   s( 6) = (     0         -1          0      )
                  (    -1          0          0      )
                  (     0          0         -1      )

 cart.    s( 6) = (  0.0000000 -1.0000000  0.0000000 )
                  ( -1.0000000  0.0000000  0.0000000 )
                  (  0.0000000  0.0000000 -1.0000000 )


      isym =  7      90 deg rotation - cart. axis [0,0,-1]       

 cryst.   s( 7) = (     0         -1          0      )    f =( -0.5000000 )
                  (     1          0          0      )       (  0.5000000 )
                  (     0          0          1      )       ( -0.5000000 )

 cart.    s( 7) = (  0.0000000  1.0000000  0.0000000 )    f =( -0.5000000 )
                  ( -1.0000000  0.0000000  0.0000000 )       (  0.5000000 )
                  (  0.0000000  0.0000000  1.0000000 )       ( -0.3509351 )


      isym =  8      90 deg rotation - cart. axis [0,0,1]        

 cryst.   s( 8) = (     0          1          0      )    f =(  0.5000000 )
                  (    -1          0          0      )       ( -0.5000000 )
                  (     0          0          1      )       ( -0.5000000 )

 cart.    s( 8) = (  0.0000000 -1.0000000  0.0000000 )    f =(  0.5000000 )
                  (  1.0000000  0.0000000  0.0000000 )       ( -0.5000000 )
                  (  0.0000000  0.0000000  1.0000000 )       ( -0.3509351 )


      isym =  9     inversion                                    

 cryst.   s( 9) = (    -1          0          0      )
                  (     0         -1          0      )
                  (     0          0         -1      )

 cart.    s( 9) = ( -1.0000000  0.0000000  0.0000000 )
                  (  0.0000000 -1.0000000  0.0000000 )
                  (  0.0000000  0.0000000 -1.0000000 )


      isym = 10     inv. 180 deg rotation - cart. axis [0,0,1]   

 cryst.   s(10) = (     1          0          0      )
                  (     0          1          0      )
                  (     0          0         -1      )

 cart.    s(10) = (  1.0000000  0.0000000  0.0000000 )
                  (  0.0000000  1.0000000  0.0000000 )
                  (  0.0000000  0.0000000 -1.0000000 )


      isym = 11     inv. 180 deg rotation - cart. axis [0,1,0]   

 cryst.   s(11) = (     1          0          0      )    f =( -0.5000000 )
                  (     0         -1          0      )       (  0.5000000 )
                  (     0          0          1      )       ( -0.5000000 )

 cart.    s(11) = (  1.0000000  0.0000000  0.0000000 )    f =( -0.5000000 )
                  (  0.0000000 -1.0000000  0.0000000 )       (  0.5000000 )
                  (  0.0000000  0.0000000  1.0000000 )       ( -0.3509351 )


      isym = 12     inv. 180 deg rotation - cart. axis [1,0,0]   

 cryst.   s(12) = (    -1          0          0      )    f =(  0.5000000 )
                  (     0          1          0      )       ( -0.5000000 )
                  (     0          0          1      )       ( -0.5000000 )

 cart.    s(12) = ( -1.0000000  0.0000000  0.0000000 )    f =(  0.5000000 )
                  (  0.0000000  1.0000000  0.0000000 )       ( -0.5000000 )
                  (  0.0000000  0.0000000  1.0000000 )       ( -0.3509351 )


      isym = 13     inv. 180 deg rotation - cart. axis [1,1,0]   

 cryst.   s(13) = (     0         -1          0      )
                  (    -1          0          0      )
                  (     0          0          1      )

 cart.    s(13) = (  0.0000000 -1.0000000  0.0000000 )
                  ( -1.0000000  0.0000000  0.0000000 )
                  (  0.0000000  0.0000000  1.0000000 )


      isym = 14     inv. 180 deg rotation - cart. axis [1,-1,0]  

 cryst.   s(14) = (     0          1          0      )
                  (     1          0          0      )
                  (     0          0          1      )

 cart.    s(14) = (  0.0000000  1.0000000  0.0000000 )
                  (  1.0000000  0.0000000  0.0000000 )
                  (  0.0000000  0.0000000  1.0000000 )


      isym = 15     inv.  90 deg rotation - cart. axis [0,0,-1]  

 cryst.   s(15) = (     0          1          0      )    f =(  0.5000000 )
                  (    -1          0          0      )       ( -0.5000000 )
                  (     0          0         -1      )       (  0.5000000 )

 cart.    s(15) = (  0.0000000 -1.0000000  0.0000000 )    f =(  0.5000000 )
                  (  1.0000000  0.0000000  0.0000000 )       ( -0.5000000 )
                  (  0.0000000  0.0000000 -1.0000000 )       (  0.3509351 )


      isym = 16     inv.  90 deg rotation - cart. axis [0,0,1]   

 cryst.   s(16) = (     0         -1          0      )    f =( -0.5000000 )
                  (     1          0          0      )       (  0.5000000 )
                  (     0          0         -1      )       (  0.5000000 )

 cart.    s(16) = (  0.0000000  1.0000000  0.0000000 )    f =( -0.5000000 )
                  ( -1.0000000  0.0000000  0.0000000 )       (  0.5000000 )
                  (  0.0000000  0.0000000 -1.0000000 )       (  0.3509351 )


     double point group D_4h(4/mmm)
     there are 14 classes and  4 irreducible representations
     the character table:

       E     -E    2C4   -2C4   C2    2C2' 2C2'' i     -i    2S4   -2S4   s_h 
                               -C2   -2C2' -2C2'                         -s_h 
G_6+   2.00 -2.00  1.41 -1.41  0.00  0.00  0.00  2.00 -2.00  1.41 -1.41  0.00
G_7+   2.00 -2.00 -1.41  1.41  0.00  0.00  0.00  2.00 -2.00 -1.41  1.41  0.00
G_6-   2.00 -2.00  1.41 -1.41  0.00  0.00  0.00 -2.00  2.00 -1.41  1.41  0.00
G_7-   2.00 -2.00 -1.41  1.41  0.00  0.00  0.00 -2.00  2.00  1.41 -1.41  0.00

        2s_v  2s_d
       -2s_v -2s_d
G_6+   0.00  0.00
G_7+   0.00  0.00
G_6-   0.00  0.00
G_7-   0.00  0.00

     the symmetry operations in each class and the name of the first element:

     E             1
          identity                                               
     -E           -1
          identity E                                             
     2C4           7    8
           90 deg rotation - cart. axis [0,0,-1]                 
     -2C4         -7   -8
           90 deg rotation - cart. axis [0,0,-1] E               
      C2  -C2      2   -2
          180 deg rotation - cart. axis [0,0,1]                  
      2C2'-2C2'    3   -3    4   -4
          180 deg rotation - cart. axis [0,1,0]                  
     2C2''-2C2'    5   -5   -6    6
          180 deg rotation - cart. axis [1,1,0]                  
     i             9
          inversion                                              
     -i           -9
          inversion E                                            
     2S4          15   16
          inv.  90 deg rotation - cart. axis [0,0,-1]            
     -2S4        -15  -16
          inv.  90 deg rotation - cart. axis [0,0,-1] E          
      s_h -s_h    10  -10
          inv. 180 deg rotation - cart. axis [0,0,1]             
      2s_v-2s_v   11  -11   12  -12
          inv. 180 deg rotation - cart. axis [0,1,0]             
      2s_d-2s_d   13  -13  -14   14
          inv. 180 deg rotation - cart. axis [1,1,0]             

   Cartesian axes

     site n.     atom                  positions (alat units)
         1           Ir  tau(   1) = (   0.0000000   0.0000000   0.0000000  )
         2           Ir  tau(   2) = (   0.5000000   0.5000000   0.3509351  )
         3           O   tau(   3) = (   0.1916000   0.8084000   0.3509351  )
         4           O   tau(   4) = (   0.3084000   0.3084000   0.0000000  )
         5           O   tau(   5) = (   0.6916000   0.6916000   0.0000000  )
         6           O   tau(   6) = (   0.8084000   0.1916000   0.3509351  )

   Crystallographic axes

     site n.     atom                  positions (cryst. coord.)
         1           Ir  tau(   1) = (  0.0000000  0.0000000  0.0000000  )
         2           Ir  tau(   2) = (  0.5000000  0.5000000  0.5000000  )
         3           O   tau(   3) = (  0.1916000  0.8084000  0.5000000  )
         4           O   tau(   4) = (  0.3084000  0.3084000  0.0000000  )
         5           O   tau(   5) = (  0.6916000  0.6916000  0.0000000  )
         6           O   tau(   6) = (  0.8084000  0.1916000  0.5000000  )

     number of k points=    30  Methfessel-Paxton smearing, width (Ry)=  0.0050
                       cart. coord. in units 2pi/alat
        k(    1) = (   0.0000000   0.0000000   0.0000000), wk =   0.0078125
        k(    2) = (   0.0000000   0.0000000   0.1780956), wk =   0.0156250
        k(    3) = (   0.0000000   0.0000000   0.3561912), wk =   0.0156250
        k(    4) = (   0.0000000   0.0000000   0.5342868), wk =   0.0156250
        k(    5) = (   0.0000000   0.0000000  -0.7123824), wk =   0.0078125
        k(    6) = (   0.0000000   0.2500000   0.0000000), wk =   0.0312500
        k(    7) = (   0.0000000   0.2500000   0.1780956), wk =   0.0625000
        k(    8) = (   0.0000000   0.2500000   0.3561912), wk =   0.0625000
        k(    9) = (   0.0000000   0.2500000   0.5342868), wk =   0.0625000
        k(   10) = (   0.0000000   0.2500000  -0.7123824), wk =   0.0312500
        k(   11) = (   0.0000000  -0.5000000   0.0000000), wk =   0.0156250
        k(   12) = (   0.0000000  -0.5000000   0.1780956), wk =   0.0312500
        k(   13) = (   0.0000000  -0.5000000   0.3561912), wk =   0.0312500
        k(   14) = (   0.0000000  -0.5000000   0.5342868), wk =   0.0312500
        k(   15) = (   0.0000000  -0.5000000  -0.7123824), wk =   0.0156250
        k(   16) = (   0.2500000   0.2500000   0.0000000), wk =   0.0312500
        k(   17) = (   0.2500000   0.2500000   0.1780956), wk =   0.0625000
        k(   18) = (   0.2500000   0.2500000   0.3561912), wk =   0.0625000
        k(   19) = (   0.2500000   0.2500000   0.5342868), wk =   0.0625000
        k(   20) = (   0.2500000   0.2500000  -0.7123824), wk =   0.0312500
        k(   21) = (   0.2500000  -0.5000000   0.0000000), wk =   0.0312500
        k(   22) = (   0.2500000  -0.5000000   0.1780956), wk =   0.0625000
        k(   23) = (   0.2500000  -0.5000000   0.3561912), wk =   0.0625000
        k(   24) = (   0.2500000  -0.5000000   0.5342868), wk =   0.0625000
        k(   25) = (   0.2500000  -0.5000000  -0.7123824), wk =   0.0312500
        k(   26) = (  -0.5000000  -0.5000000   0.0000000), wk =   0.0078125
        k(   27) = (  -0.5000000  -0.5000000   0.1780956), wk =   0.0156250
        k(   28) = (  -0.5000000  -0.5000000   0.3561912), wk =   0.0156250
        k(   29) = (  -0.5000000  -0.5000000   0.5342868), wk =   0.0156250
        k(   30) = (  -0.5000000  -0.5000000  -0.7123824), wk =   0.0078125

                       cryst. coord.
        k(    1) = (   0.0000000   0.0000000   0.0000000), wk =   0.0078125
        k(    2) = (   0.0000000   0.0000000   0.1250000), wk =   0.0156250
        k(    3) = (   0.0000000   0.0000000   0.2500000), wk =   0.0156250
        k(    4) = (   0.0000000   0.0000000   0.3750000), wk =   0.0156250
        k(    5) = (   0.0000000   0.0000000  -0.5000000), wk =   0.0078125
        k(    6) = (   0.0000000   0.2500000   0.0000000), wk =   0.0312500
        k(    7) = (   0.0000000   0.2500000   0.1250000), wk =   0.0625000
        k(    8) = (   0.0000000   0.2500000   0.2500000), wk =   0.0625000
        k(    9) = (   0.0000000   0.2500000   0.3750000), wk =   0.0625000
        k(   10) = (   0.0000000   0.2500000  -0.5000000), wk =   0.0312500
        k(   11) = (   0.0000000  -0.5000000   0.0000000), wk =   0.0156250
        k(   12) = (   0.0000000  -0.5000000   0.1250000), wk =   0.0312500
        k(   13) = (   0.0000000  -0.5000000   0.2500000), wk =   0.0312500
        k(   14) = (   0.0000000  -0.5000000   0.3750000), wk =   0.0312500
        k(   15) = (   0.0000000  -0.5000000  -0.5000000), wk =   0.0156250
        k(   16) = (   0.2500000   0.2500000   0.0000000), wk =   0.0312500
        k(   17) = (   0.2500000   0.2500000   0.1250000), wk =   0.0625000
        k(   18) = (   0.2500000   0.2500000   0.2500000), wk =   0.0625000
        k(   19) = (   0.2500000   0.2500000   0.3750000), wk =   0.0625000
        k(   20) = (   0.2500000   0.2500000  -0.5000000), wk =   0.0312500
        k(   21) = (   0.2500000  -0.5000000   0.0000000), wk =   0.0312500
        k(   22) = (   0.2500000  -0.5000000   0.1250000), wk =   0.0625000
        k(   23) = (   0.2500000  -0.5000000   0.2500000), wk =   0.0625000
        k(   24) = (   0.2500000  -0.5000000   0.3750000), wk =   0.0625000
        k(   25) = (   0.2500000  -0.5000000  -0.5000000), wk =   0.0312500
        k(   26) = (  -0.5000000  -0.5000000   0.0000000), wk =   0.0078125
        k(   27) = (  -0.5000000  -0.5000000   0.1250000), wk =   0.0156250
        k(   28) = (  -0.5000000  -0.5000000   0.2500000), wk =   0.0156250
        k(   29) = (  -0.5000000  -0.5000000   0.3750000), wk =   0.0156250
        k(   30) = (  -0.5000000  -0.5000000  -0.5000000), wk =   0.0078125

     Dense  grid:    42999 G-vectors     FFT dimensions: (  50,  50,  36)

     Dynamical RAM for                 wfc:       0.36 MB

     Dynamical RAM for     wfc (w. buffer):      11.06 MB

     Dynamical RAM for           str. fact:       0.04 MB

     Dynamical RAM for           local pot:       0.00 MB

     Dynamical RAM for          nlocal pot:       0.46 MB

     Dynamical RAM for                qrad:      20.10 MB

     Dynamical RAM for          rho,v,vnew:       0.70 MB

     Dynamical RAM for               rhoin:       0.23 MB

     Dynamical RAM for            rho*nmix:       1.31 MB

     Dynamical RAM for           G-vectors:       0.09 MB

     Dynamical RAM for          h,s,v(r/c):       0.04 MB

     Dynamical RAM for          <psi|beta>:       0.38 MB

     Dynamical RAM for                 psi:       0.71 MB

     Dynamical RAM for                hpsi:       0.71 MB

     Dynamical RAM for      wfcinit/wfcrot:       0.67 MB

     Estimated static dynamical RAM per process >      33.05 MB

     Estimated max dynamical RAM per process >      36.21 MB

     Estimated total dynamical RAM >       1.13 GB

     Initial potential from superposition of free atoms

     starting charge      57.9997, renormalised to      58.0000
     Starting wfcs are   72 randomized atomic wfcs

     total cpu time spent up to now is        1.7 secs

     Self-consistent Calculation

     iteration #  1     ecut=    80.00 Ry     beta= 0.70
     Davidson diagonalization with overlap

---- Real-time Memory Report at c_bands before calling an iterative solver
            85 MiB given to the printing process from OS
             0 MiB allocation reported by mallinfo(arena+hblkhd)
        229000 MiB available memory on the node where the printing process lives
------------------
     ethr =  1.00E-02,  avg # of iterations =  2.8

     total cpu time spent up to now is        6.9 secs

     total energy              =    -552.42524416 Ry
     estimated scf accuracy    <       1.21517829 Ry

     iteration #  2     ecut=    80.00 Ry     beta= 0.70
     Davidson diagonalization with overlap

---- Real-time Memory Report at c_bands before calling an iterative solver
            91 MiB given to the printing process from OS
             0 MiB allocation reported by mallinfo(arena+hblkhd)
        228852 MiB available memory on the node where the printing process lives
------------------
     ethr =  2.10E-03,  avg # of iterations =  2.0

     total cpu time spent up to now is       12.6 secs

     total energy              =    -552.29920467 Ry
     estimated scf accuracy    <       4.21397114 Ry

     iteration #  3     ecut=    80.00 Ry     beta= 0.70
     Davidson diagonalization with overlap

---- Real-time Memory Report at c_bands before calling an iterative solver
            95 MiB given to the printing process from OS
             0 MiB allocation reported by mallinfo(arena+hblkhd)
        228800 MiB available memory on the node where the printing process lives
------------------
     ethr =  2.10E-03,  avg # of iterations =  2.0

     total cpu time spent up to now is       17.9 secs

     total energy              =    -553.07535456 Ry
     estimated scf accuracy    <       0.03073906 Ry

     iteration #  4     ecut=    80.00 Ry     beta= 0.70
     Davidson diagonalization with overlap

---- Real-time Memory Report at c_bands before calling an iterative solver
            96 MiB given to the printing process from OS
             0 MiB allocation reported by mallinfo(arena+hblkhd)
        228788 MiB available memory on the node where the printing process lives
------------------
     ethr =  5.30E-05,  avg # of iterations =  2.7

     total cpu time spent up to now is       23.4 secs

     total energy              =    -553.07917653 Ry
     estimated scf accuracy    <       0.00418458 Ry

     iteration #  5     ecut=    80.00 Ry     beta= 0.70
     Davidson diagonalization with overlap

---- Real-time Memory Report at c_bands before calling an iterative solver
            96 MiB given to the printing process from OS
             0 MiB allocation reported by mallinfo(arena+hblkhd)
        228785 MiB available memory on the node where the printing process lives
------------------
     c_bands:  2 eigenvalues not converged
     ethr =  7.21E-06,  avg # of iterations =  3.5

     total cpu time spent up to now is       28.4 secs

     total energy              =    -553.07986291 Ry
     estimated scf accuracy    <       0.00021151 Ry

     iteration #  6     ecut=    80.00 Ry     beta= 0.70
     Davidson diagonalization with overlap

---- Real-time Memory Report at c_bands before calling an iterative solver
            97 MiB given to the printing process from OS
             0 MiB allocation reported by mallinfo(arena+hblkhd)
        228780 MiB available memory on the node where the printing process lives
------------------
     ethr =  3.65E-07,  avg # of iterations =  2.3

     total cpu time spent up to now is       33.2 secs

     total energy              =    -553.07988985 Ry
     estimated scf accuracy    <       0.00000874 Ry

     iteration #  7     ecut=    80.00 Ry     beta= 0.70
     Davidson diagonalization with overlap

---- Real-time Memory Report at c_bands before calling an iterative solver
            97 MiB given to the printing process from OS
             0 MiB allocation reported by mallinfo(arena+hblkhd)
        228776 MiB available memory on the node where the printing process lives
------------------
     ethr =  1.51E-08,  avg # of iterations =  2.0

     total cpu time spent up to now is       38.8 secs

     total energy              =    -553.07989280 Ry
     estimated scf accuracy    <       0.00000071 Ry

     iteration #  8     ecut=    80.00 Ry     beta= 0.70
     Davidson diagonalization with overlap

---- Real-time Memory Report at c_bands before calling an iterative solver
            98 MiB given to the printing process from OS
             0 MiB allocation reported by mallinfo(arena+hblkhd)
        228720 MiB available memory on the node where the printing process lives
------------------
     ethr =  1.23E-09,  avg # of iterations =  2.1

     total cpu time spent up to now is       43.5 secs

     total energy              =    -553.07989285 Ry
     estimated scf accuracy    <       0.00000009 Ry

     iteration #  9     ecut=    80.00 Ry     beta= 0.70
     Davidson diagonalization with overlap

---- Real-time Memory Report at c_bands before calling an iterative solver
            98 MiB given to the printing process from OS
             0 MiB allocation reported by mallinfo(arena+hblkhd)
        228729 MiB available memory on the node where the printing process lives
------------------
     ethr =  1.55E-10,  avg # of iterations =  2.7

     total cpu time spent up to now is       48.9 secs

     total energy              =    -553.07989287 Ry
     estimated scf accuracy    <          6.0E-09 Ry

     iteration # 10     ecut=    80.00 Ry     beta= 0.70
     Davidson diagonalization with overlap

---- Real-time Memory Report at c_bands before calling an iterative solver
           100 MiB given to the printing process from OS
             0 MiB allocation reported by mallinfo(arena+hblkhd)
        228694 MiB available memory on the node where the printing process lives
------------------
     ethr =  1.03E-11,  avg # of iterations =  2.1

     total cpu time spent up to now is       54.1 secs

     End of self-consistent calculation

          k = 0.0000 0.0000 0.0000 (  5409 PWs)   bands (ev):

   -79.3779 -79.3779 -79.3766 -79.3766 -46.2206 -46.2206 -46.2098 -46.2098
   -32.7610 -32.7610 -32.7530 -32.7530 -32.6151 -32.6151 -32.5980 -32.5980
    -7.0799  -7.0799  -5.9246  -5.9246  -5.0097  -5.0097  -4.8082  -4.8082
     4.2655   4.2655   4.5123   4.5123   6.0315   6.0315   6.1428   6.1428
     6.2581   6.2581   8.7810   8.7810   8.9325   8.9325   9.1900   9.1900
    10.3274  10.3274  10.9813  10.9813  10.9905  10.9905  11.0238  11.0238
    11.2117  11.2117  11.3953  11.3953  11.6389  11.6389  11.6724  11.6724
    12.0623  12.0623  14.6483  14.6483  15.0772  15.0772  17.6874  17.6874
    17.8947  17.8947  18.0446  18.0446  19.4448  19.4448

     occupation numbers 
     1.0000   1.0000   1.0000   1.0000   1.0000   1.0000   1.0000   1.0000
     1.0000   1.0000   1.0000   1.0000   1.0000   1.0000   1.0000   1.0000
     1.0000   1.0000   1.0000   1.0000   1.0000   1.0000   1.0000   1.0000
     1.0000   1.0000   1.0000   1.0000   1.0000   1.0000   1.0000   1.0000
     1.0000   1.0000   1.0000   1.0000   1.0000   1.0000   1.0000   1.0000
     1.0000   1.0000   1.0000   1.0000   1.0000   1.0000   1.0000   1.0000
     1.0000   1.0000   1.0000   1.0000   1.0000   1.0000   1.0000   1.0000
     1.0000   1.0000  -0.0000  -0.0000  -0.0000  -0.0000  -0.0000  -0.0000
    -0.0000  -0.0000  -0.0000  -0.0000  -0.0000  -0.0000

          k = 0.0000 0.0000 0.1781 (  5369 PWs)   bands (ev):

   -79.3775 -79.3775 -79.3763 -79.3763 -46.2218 -46.2218 -46.2119 -46.2119
   -32.7651 -32.7651 -32.7616 -32.7616 -32.6206 -32.6206 -32.6008 -32.6008
    -6.9387  -6.9387  -5.8517  -5.8517  -5.0756  -5.0756  -4.8966  -4.8966
     4.4715   4.4715   4.6609   4.6609   6.1540   6.1540   6.2277   6.2277
     6.4088   6.4088   8.2437   8.2437   9.0386   9.0386   9.2979   9.2979
     9.5363   9.5363  10.1173  10.1173  10.2246  10.2246  11.2983  11.2983
    11.6173  11.6173  11.6406  11.6406  11.7657  11.7657  12.3556  12.3556
    12.4481  12.4481  14.9304  14.9304  14.9766  14.9766  17.3269  17.3269
    17.6433  17.6433  18.2964  18.2964  19.1772  19.1772

     occupation numbers 
     1.0000   1.0000   1.0000   1.0000   1.0000   1.0000   1.0000   1.0000
     1.0000   1.0000   1.0000   1.0000   1.0000   1.0000   1.0000   1.0000
     1.0000   1.0000   1.0000   1.0000   1.0000   1.0000   1.0000   1.0000
     1.0000   1.0000   1.0000   1.0000   1.0000   1.0000   1.0000   1.0000
     1.0000   1.0000   1.0000   1.0000   1.0000   1.0000   1.0000   1.0000
     1.0000   1.0000   1.0000   1.0000   1.0000   1.0000   1.0000   1.0000
     1.0000   1.0000   1.0000   1.0000   1.0000   1.0000   1.0000   1.0000
     1.0000   1.0000  -0.0000  -0.0000  -0.0000  -0.0000  -0.0000  -0.0000
    -0.0000  -0.0000  -0.0000  -0.0000  -0.0000  -0.0000

          k = 0.0000 0.0000 0.3562 (  5381 PWs)   bands (ev):

   -79.3765 -79.3765 -79.3756 -79.3756 -46.2246 -46.2246 -46.2170 -46.2170
   -32.7833 -32.7833 -32.7795 -32.7795 -32.6287 -32.6287 -32.6070 -32.6070
    -6.5654  -6.5654  -5.6981  -5.6981  -5.2248  -5.2248  -5.1049  -5.1049
     5.0337   5.0337   5.0409   5.0409   6.4640   6.4640   6.4671   6.4671
     6.8576   6.8576   7.2502   7.2502   8.2910   8.2910   9.1093   9.1093
     9.3241   9.3241   9.4397   9.4397   9.7595   9.7595  10.5856  10.5856
    11.7981  11.7981  11.9573  11.9573  12.1569  12.1569  13.1766  13.1766
    13.1976  13.1976  14.5256  14.5256  15.6463  15.6463  16.6630  16.6630
    16.9549  16.9549  17.9968  17.9968  19.8557  19.8557

     occupation numbers 
     1.0000   1.0000   1.0000   1.0000   1.0000   1.0000   1.0000   1.0000
     1.0000   1.0000   1.0000   1.0000   1.0000   1.0000   1.0000   1.0000
     1.0000   1.0000   1.0000   1.0000   1.0000   1.0000   1.0000   1.0000
     1.0000   1.0000   1.0000   1.0000   1.0000   1.0000   1.0000   1.0000
     1.0000   1.0000   1.0000   1.0000   1.0000   1.0000   1.0000   1.0000
     1.0000   1.0000   1.0000   1.0000   1.0000   1.0000   1.0000   1.0000
     1.0000   1.0000   1.0000   1.0000   1.0000   1.0000   1.0000   1.0000
     1.0000   1.0000  -0.0000  -0.0000  -0.0000  -0.0000  -0.0000  -0.0000
    -0.0000  -0.0000  -0.0000  -0.0000  -0.0000  -0.0000

          k = 0.0000 0.0000 0.5343 (  5393 PWs)   bands (ev):

   -79.3755 -79.3755 -79.3750 -79.3750 -46.2268 -46.2268 -46.2227 -46.2227
   -32.8051 -32.8051 -32.8005 -32.8005 -32.6285 -32.6285 -32.6141 -32.6141
    -6.1009  -6.1009  -5.6203  -5.6203  -5.3561  -5.3561  -5.3113  -5.3113
     5.4561   5.4561   5.7019   5.7019   6.4491   6.4491   6.8476   6.8476
     6.8973   6.8973   7.3390   7.3390   7.5959   7.5959   8.4762   8.4762
     8.6049   8.6049   9.5878   9.5878   9.7531   9.7531   9.9542   9.9542
    11.7921  11.7921  12.1447  12.1447  12.4625  12.4625  13.5915  13.5915
    13.8213  13.8213  14.0993  14.0993  16.0624  16.0624  16.2278  16.2278
    16.5490  16.5490  17.0891  17.0891  21.4132  21.4132

     occupation numbers 
     1.0000   1.0000   1.0000   1.0000   1.0000   1.0000   1.0000   1.0000
     1.0000   1.0000   1.0000   1.0000   1.0000   1.0000   1.0000   1.0000
     1.0000   1.0000   1.0000   1.0000   1.0000   1.0000   1.0000   1.0000
     1.0000   1.0000   1.0000   1.0000   1.0000   1.0000   1.0000   1.0000
     1.0000   1.0000   1.0000   1.0000   1.0000   1.0000   1.0000   1.0000
     1.0000   1.0000   1.0000   1.0000   1.0000   1.0000   1.0000   1.0000
     1.0000   1.0000   1.0000   1.0000   1.0000   1.0000   1.0000   1.0000
     0.8253   0.8253  -0.0000  -0.0000  -0.0000  -0.0000  -0.0000  -0.0000
    -0.0000  -0.0000  -0.0000  -0.0000  -0.0000  -0.0000

          k = 0.0000 0.0000-0.7124 (  5314 PWs)   bands (ev):

   -79.3749 -79.3749 -79.3749 -79.3749 -46.2264 -46.2264 -46.2264 -46.2264
   -32.8124 -32.8124 -32.8124 -32.8124 -32.6219 -32.6219 -32.6219 -32.6219
    -5.7397  -5.7397  -5.7397  -5.7397  -5.4068  -5.4068  -5.4068  -5.4068
     5.7309   5.7309   5.7309   5.7309   6.6994   6.6994   6.6994   6.6994
     7.0941   7.0941   7.0941   7.0941   8.1985   8.1985   8.1985   8.1985
     8.5514   8.5514   8.5514   8.5514   9.9518   9.9518   9.9518   9.9518
    11.8978  11.8978  11.8978  11.8978  13.0861  13.0861  13.0861  13.0861
    14.1164  14.1164  14.1164  14.1164  16.0954  16.0954  16.0954  16.0954
    16.6110  16.6110  16.6110  16.6110  22.9205  22.9205

     occupation numbers 
     1.0000   1.0000   1.0000   1.0000   1.0000   1.0000   1.0000   1.0000
     1.0000   1.0000   1.0000   1.0000   1.0000   1.0000   1.0000   1.0000
     1.0000   1.0000   1.0000   1.0000   1.0000   1.0000   1.0000   1.0000
     1.0000   1.0000   1.0000   1.0000   1.0000   1.0000   1.0000   1.0000
     1.0000   1.0000   1.0000   1.0000   1.0000   1.0000   1.0000   1.0000
     1.0000   1.0000   1.0000   1.0000   1.0000   1.0000   1.0000   1.0000
     1.0000   1.0000   1.0000   1.0000   1.0000   1.0000   1.0000   1.0000
    -0.0000  -0.0000  -0.0000  -0.0000  -0.0000  -0.0000  -0.0000  -0.0000
    -0.0000  -0.0000  -0.0000  -0.0000  -0.0000  -0.0000

          k = 0.0000 0.2500 0.0000 (  5376 PWs)   bands (ev):

   -79.3777 -79.3777 -79.3768 -79.3768 -46.2190 -46.2190 -46.2114 -46.2114
   -32.7583 -32.7583 -32.7527 -32.7527 -32.6145 -32.6145 -32.6023 -32.6023
    -6.8507  -6.8507  -5.9202  -5.9202  -5.1974  -5.1974  -5.0022  -5.0022
     4.8201   4.8201   4.9452   4.9452   6.1104   6.1104   6.1903   6.1903
     6.6497   6.6497   8.1650   8.1650   8.3450   8.3450   8.6709   8.6709
     9.5046   9.5046   9.6420   9.6420  10.6047  10.6047  11.3574  11.3574
    11.7057  11.7057  11.8083  11.8083  12.0496  12.0496  12.2021  12.2021
    12.6466  12.6466  14.6204  14.6204  15.5911  15.5911  17.4698  17.4698
    17.7497  17.7497  18.8442  18.8442  18.9345  18.9345

     occupation numbers 
     1.0000   1.0000   1.0000   1.0000   1.0000   1.0000   1.0000   1.0000
     1.0000   1.0000   1.0000   1.0000   1.0000   1.0000   1.0000   1.0000
     1.0000   1.0000   1.0000   1.0000   1.0000   1.0000   1.0000   1.0000
     1.0000   1.0000   1.0000   1.0000   1.0000   1.0000   1.0000   1.0000
     1.0000   1.0000   1.0000   1.0000   1.0000   1.0000   1.0000   1.0000
     1.0000   1.0000   1.0000   1.0000   1.0000   1.0000   1.0000   1.0000
     1.0000   1.0000   1.0000   1.0000   1.0000   1.0000   1.0000   1.0000
     1.0000   1.0000  -0.0000  -0.0000  -0.0000  -0.0000  -0.0000  -0.0000
    -0.0000  -0.0000  -0.0000  -0.0000  -0.0000  -0.0000

          k = 0.0000 0.2500 0.1781 (  5363 PWs)   bands (ev):

   -79.3773 -79.3773 -79.3765 -79.3765 -46.2204 -46.2204 -46.2134 -46.2134
   -32.7669 -32.7669 -32.7574 -32.7574 -32.6199 -32.6199 -32.6045 -32.6045
    -6.7195  -6.7195  -5.8313  -5.8313  -5.2617  -5.2617  -5.0749  -5.0749
     4.9733   4.9733   5.0915   5.0915   6.1892   6.1892   6.2412   6.2412
     6.8537   6.8537   8.0146   8.0146   8.2814   8.2814   8.5256   8.5256
     8.7749   8.7749   9.7997   9.7997  10.3132  10.3132  11.1961  11.1961
    11.6921  11.6921  12.1034  12.1034  12.1971  12.1971  12.4864  12.4864
    12.8797  12.8797  14.5104  14.5104  15.7909  15.7909  16.9815  16.9815
    17.3182  17.3182  18.7446  18.7446  19.3733  19.3733

     occupation numbers 
     1.0000   1.0000   1.0000   1.0000   1.0000   1.0000   1.0000   1.0000
     1.0000   1.0000   1.0000   1.0000   1.0000   1.0000   1.0000   1.0000
     1.0000   1.0000   1.0000   1.0000   1.0000   1.0000   1.0000   1.0000
     1.0000   1.0000   1.0000   1.0000   1.0000   1.0000   1.0000   1.0000
     1.0000   1.0000   1.0000   1.0000   1.0000   1.0000   1.0000   1.0000
     1.0000   1.0000   1.0000   1.0000   1.0000   1.0000   1.0000   1.0000
     1.0000   1.0000   1.0000   1.0000   1.0000   1.0000   1.0000   1.0000
     1.0000   1.0000  -0.0000  -0.0000  -0.0000  -0.0000  -0.0000  -0.0000
    -0.0000  -0.0000  -0.0000  -0.0000  -0.0000  -0.0000

          k = 0.0000 0.2500 0.3562 (  5378 PWs)   bands (ev):

   -79.3764 -79.3764 -79.3757 -79.3757 -46.2236 -46.2236 -46.2181 -46.2181
   -32.7893 -32.7893 -32.7725 -32.7725 -32.6281 -32.6281 -32.6090 -32.6090
    -6.3839  -6.3839  -5.6466  -5.6466  -5.3974  -5.3974  -5.2332  -5.2332
     5.3498   5.3498   5.4421   5.4421   6.3904   6.3904   6.4972   6.4972
     6.9970   6.9970   7.4526   7.4526   7.5286   7.5286   8.6553   8.6553
     9.0017   9.0017   9.4748   9.4748   9.7227   9.7227  11.0021  11.0021
    11.3975  11.3975  12.3050  12.3050  12.4494  12.4494  12.8976  12.8976
    13.4048  13.4048  14.2815  14.2815  16.0073  16.0073  16.1648  16.1648
    16.8599  16.8599  18.3685  18.3685  20.4377  20.4377

     occupation numbers 
     1.0000   1.0000   1.0000   1.0000   1.0000   1.0000   1.0000   1.0000
     1.0000   1.0000   1.0000   1.0000   1.0000   1.0000   1.0000   1.0000
     1.0000   1.0000   1.0000   1.0000   1.0000   1.0000   1.0000   1.0000
     1.0000   1.0000   1.0000   1.0000   1.0000   1.0000   1.0000   1.0000
     1.0000   1.0000   1.0000   1.0000   1.0000   1.0000   1.0000   1.0000
     1.0000   1.0000   1.0000   1.0000   1.0000   1.0000   1.0000   1.0000
     1.0000   1.0000   1.0000   1.0000   1.0000   1.0000   1.0000   1.0000
     1.0000   1.0000  -0.0000  -0.0000  -0.0000  -0.0000  -0.0000  -0.0000
    -0.0000  -0.0000  -0.0000  -0.0000  -0.0000  -0.0000

          k = 0.0000 0.2500 0.5343 (  5374 PWs)   bands (ev):

   -79.3754 -79.3754 -79.3751 -79.3751 -46.2264 -46.2264 -46.2232 -46.2232
   -32.8132 -32.8132 -32.7924 -32.7924 -32.6299 -32.6299 -32.6130 -32.6130
    -6.0114  -6.0114  -5.6588  -5.6588  -5.4209  -5.4209  -5.3047  -5.3047
     5.6526   5.6526   5.8038   5.8038   6.0247   6.0247   6.4822   6.4822
     7.1579   7.1579   7.3320   7.3320   8.0544   8.0544   8.5909   8.5909
     8.8849   8.8849   9.3385   9.3385   9.5804   9.5804  10.2332  10.2332
    11.7126  11.7126  12.1031  12.1031  12.2217  12.2217  12.9335  12.9335
    13.8972  13.8972  14.2937  14.2937  15.4788  15.4788  15.6763  15.6763
    17.2336  17.2336  17.9904  17.9904  21.7409  21.7409

     occupation numbers 
     1.0000   1.0000   1.0000   1.0000   1.0000   1.0000   1.0000   1.0000
     1.0000   1.0000   1.0000   1.0000   1.0000   1.0000   1.0000   1.0000
     1.0000   1.0000   1.0000   1.0000   1.0000   1.0000   1.0000   1.0000
     1.0000   1.0000   1.0000   1.0000   1.0000   1.0000   1.0000   1.0000
     1.0000   1.0000   1.0000   1.0000   1.0000   1.0000   1.0000   1.0000
     1.0000   1.0000   1.0000   1.0000   1.0000   1.0000   1.0000   1.0000
     1.0000   1.0000   1.0000   1.0000   1.0000   1.0000   1.0000   1.0000
     0.0427   0.0427  -0.0000  -0.0000  -0.0000  -0.0000  -0.0000  -0.0000
    -0.0000  -0.0000  -0.0000  -0.0000  -0.0000  -0.0000

          k = 0.0000 0.2500-0.7124 (  5356 PWs)   bands (ev):

   -79.3749 -79.3749 -79.3749 -79.3749 -46.2272 -46.2272 -46.2258 -46.2258
   -32.8234 -32.8234 -32.8017 -32.8017 -32.6289 -32.6289 -32.6149 -32.6149
    -5.7969  -5.7969  -5.7834  -5.7834  -5.4112  -5.4112  -5.2822  -5.2822
     5.6559   5.6559   5.7436   5.7436   6.1020   6.1020   6.2200   6.2200
     7.5901   7.5901   7.7301   7.7301   8.1130   8.1130   8.3375   8.3375
     9.1517   9.1517   9.2083   9.2083   9.6296   9.6296   9.6552   9.6552
    11.8617  11.8617  11.8863  11.8863  12.2965  12.2965  12.6070  12.6070
    14.0818  14.0818  14.4216  14.4216  15.3337  15.3337  15.3998  15.3998
    17.5525  17.5525  17.7523  17.7523  22.9710  23.0337

     occupation numbers 
     1.0000   1.0000   1.0000   1.0000   1.0000   1.0000   1.0000   1.0000
     1.0000   1.0000   1.0000   1.0000   1.0000   1.0000   1.0000   1.0000
     1.0000   1.0000   1.0000   1.0000   1.0000   1.0000   1.0000   1.0000
     1.0000   1.0000   1.0000   1.0000   1.0000   1.0000   1.0000   1.0000
     1.0000   1.0000   1.0000   1.0000   1.0000   1.0000   1.0000   1.0000
     1.0000   1.0000   1.0000   1.0000   1.0000   1.0000   1.0000   1.0000
     1.0000   1.0000   1.0000   1.0000   1.0000   1.0000   1.0000   1.0000
    -0.0000  -0.0000  -0.0000  -0.0000  -0.0000  -0.0000  -0.0000  -0.0000
    -0.0000  -0.0000  -0.0000  -0.0000  -0.0000  -0.0000

          k = 0.0000-0.5000 0.0000 (  5380 PWs)   bands (ev):

   -79.3772 -79.3772 -79.3772 -79.3772 -46.2152 -46.2152 -46.2152 -46.2152
   -32.7540 -32.7540 -32.7540 -32.7540 -32.6102 -32.6102 -32.6102 -32.6102
    -6.2863  -6.2863  -6.2863  -6.2863  -5.2695  -5.2695  -5.2695  -5.2695
     5.6251   5.6251   5.6251   5.6251   6.2379   6.2379   6.2379   6.2379
     7.2609   7.2609   7.2609   7.2609   7.8904   7.8904   7.8904   7.8904
     8.7660   8.7660   8.7660   8.7660  10.8215  10.8215  10.8215  10.8215
    12.1300  12.1300  12.1300  12.1300  12.5012  12.5012  12.5012  12.5012
    13.6425  13.6425  13.6425  13.6425  17.2179  17.2179  17.2179  17.2179
    17.5159  17.5159  17.5159  17.5159  20.7691  20.7691

     occupation numbers 
     1.0000   1.0000   1.0000   1.0000   1.0000   1.0000   1.0000   1.0000
     1.0000   1.0000   1.0000   1.0000   1.0000   1.0000   1.0000   1.0000
     1.0000   1.0000   1.0000   1.0000   1.0000   1.0000   1.0000   1.0000
     1.0000   1.0000   1.0000   1.0000   1.0000   1.0000   1.0000   1.0000
     1.0000   1.0000   1.0000   1.0000   1.0000   1.0000   1.0000   1.0000
     1.0000   1.0000   1.0000   1.0000   1.0000   1.0000   1.0000   1.0000
     1.0000   1.0000   1.0000   1.0000   1.0000   1.0000   1.0000   1.0000
     1.0001   1.0001   1.0001   1.0001  -0.0000  -0.0000  -0.0000  -0.0000
    -0.0000  -0.0000  -0.0000  -0.0000  -0.0000  -0.0000

          k = 0.0000-0.5000 0.1781 (  5376 PWs)   bands (ev):

   -79.3769 -79.3769 -79.3769 -79.3769 -46.2173 -46.2173 -46.2165 -46.2165
   -32.7675 -32.7675 -32.7544 -32.7544 -32.6181 -32.6181 -32.6093 -32.6093
    -6.1899  -6.1899  -6.1611  -6.1611  -5.3431  -5.3431  -5.3135  -5.3135
     5.7573   5.7573   5.8654   5.8654   6.1585   6.1585   6.1721   6.1721
     7.4936   7.4936   7.5539   7.5539   7.6704   7.6704   7.6724   7.6724
     8.4680   8.4680   8.5810   8.5810  10.8133  10.8133  10.8354  10.8354
    12.0542  12.0542  12.0782  12.0782  12.6926  12.6926  12.8301  12.8301
    13.5078  13.5078  13.7529  13.7529  16.6116  16.6116  16.8139  16.8139
    17.5498  17.5498  17.6004  17.6004  21.1704  21.1812

     occupation numbers 
     1.0000   1.0000   1.0000   1.0000   1.0000   1.0000   1.0000   1.0000
     1.0000   1.0000   1.0000   1.0000   1.0000   1.0000   1.0000   1.0000
     1.0000   1.0000   1.0000   1.0000   1.0000   1.0000   1.0000   1.0000
     1.0000   1.0000   1.0000   1.0000   1.0000   1.0000   1.0000   1.0000
     1.0000   1.0000   1.0000   1.0000   1.0000   1.0000   1.0000   1.0000
     1.0000   1.0000   1.0000   1.0000   1.0000   1.0000   1.0000   1.0000
     1.0000   1.0000   1.0000   1.0000   1.0000   1.0000   1.0000   1.0000
     1.0000   1.0000   1.0306   1.0306  -0.0000  -0.0000  -0.0000  -0.0000
    -0.0000  -0.0000  -0.0000  -0.0000  -0.0000  -0.0000

          k = 0.0000-0.5000 0.3562 (  5390 PWs)   bands (ev):

   -79.3761 -79.3761 -79.3761 -79.3761 -46.2216 -46.2216 -46.2202 -46.2202
   -32.7921 -32.7921 -32.7687 -32.7687 -32.6271 -32.6271 -32.6114 -32.6114
    -5.9418  -5.9418  -5.9102  -5.9102  -5.4772  -5.4772  -5.3987  -5.3987
     5.9720   5.9720   6.0295   6.0295   6.4479   6.4479   6.5452   6.5452
     6.6629   6.6629   6.7171   6.7171   8.0799   8.0799   8.0815   8.0815
     8.7573   8.7573   8.7590   8.7590  10.4225  10.4225  10.4435  10.4435
    12.0232  12.0232  12.0935  12.0935  12.6524  12.6524  12.9149  12.9149
    13.5837  13.5837  14.0166  14.0166  15.7596  15.7596  15.8801  15.8801
    17.7782  17.7782  17.8625  17.8625  21.9697  21.9855

     occupation numbers 
     1.0000   1.0000   1.0000   1.0000   1.0000   1.0000   1.0000   1.0000
     1.0000   1.0000   1.0000   1.0000   1.0000   1.0000   1.0000   1.0000
     1.0000   1.0000   1.0000   1.0000   1.0000   1.0000   1.0000   1.0000
     1.0000   1.0000   1.0000   1.0000   1.0000   1.0000   1.0000   1.0000
     1.0000   1.0000   1.0000   1.0000   1.0000   1.0000   1.0000   1.0000
     1.0000   1.0000   1.0000   1.0000   1.0000   1.0000   1.0000   1.0000
     1.0000   1.0000   1.0000   1.0000   1.0000   1.0000   1.0000   1.0000
     1.0000   1.0000  -0.0015  -0.0015  -0.0000  -0.0000  -0.0000  -0.0000
    -0.0000  -0.0000  -0.0000  -0.0000  -0.0000  -0.0000

          k = 0.0000-0.5000 0.5343 (  5370 PWs)   bands (ev):

   -79.3752 -79.3752 -79.3752 -79.3752 -46.2257 -46.2257 -46.2239 -46.2239
   -32.8174 -32.8174 -32.7883 -32.7883 -32.6310 -32.6310 -32.6121 -32.6121
    -5.8128  -5.8128  -5.8106  -5.8106  -5.4649  -5.4649  -5.3148  -5.3148
     5.7486   5.7486   5.7827   5.7827   6.1566   6.1566   6.1733   6.1733
     7.1444   7.1444   7.4611   7.4611   8.4136   8.4136   8.4301   8.4301
     8.9386   8.9386   9.0583   9.0583  10.2807  10.2807  10.3258  10.3258
    11.5315  11.5315  11.5602  11.5602  12.2186  12.2186  12.5248  12.5248
    13.9837  13.9837  14.3734  14.3734  15.2081  15.2081  15.2225  15.2225
    18.0773  18.0773  18.2278  18.2278  22.7568  22.7668

     occupation numbers 
     1.0000   1.0000   1.0000   1.0000   1.0000   1.0000   1.0000   1.0000
     1.0000   1.0000   1.0000   1.0000   1.0000   1.0000   1.0000   1.0000
     1.0000   1.0000   1.0000   1.0000   1.0000   1.0000   1.0000   1.0000
     1.0000   1.0000   1.0000   1.0000   1.0000   1.0000   1.0000   1.0000
     1.0000   1.0000   1.0000   1.0000   1.0000   1.0000   1.0000   1.0000
     1.0000   1.0000   1.0000   1.0000   1.0000   1.0000   1.0000   1.0000
     1.0000   1.0000   1.0000   1.0000   1.0000   1.0000   1.0000   1.0000
    -0.0090  -0.0090  -0.0000  -0.0000  -0.0000  -0.0000  -0.0000  -0.0000
    -0.0000  -0.0000  -0.0000  -0.0000  -0.0000  -0.0000

          k = 0.0000-0.5000-0.7124 (  5360 PWs)   bands (ev):

   -79.3749 -79.3749 -79.3749 -79.3749 -46.2275 -46.2275 -46.2255 -46.2255
   -32.8281 -32.8281 -32.7975 -32.7975 -32.6317 -32.6317 -32.6120 -32.6120
    -5.8317  -5.8317  -5.8313  -5.8313  -5.3767  -5.3767  -5.2141  -5.2141
     5.4419   5.4419   5.4848   5.4848   6.2118   6.2118   6.2138   6.2138
     7.5281   7.5281   8.0684   8.0684   8.4789   8.4789   8.6276   8.6276
     8.8350   8.8350   8.9308   8.9308  10.6048  10.6048  10.6163  10.6163
    11.0419  11.0419  11.0556  11.0556  11.9046  11.9046  12.2339  12.2339
    14.1593  14.1593  14.5039  14.5039  15.0213  15.0213  15.0675  15.0675
    18.2273  18.2273  18.3966  18.3966  23.1329  23.1329

     occupation numbers 
     1.0000   1.0000   1.0000   1.0000   1.0000   1.0000   1.0000   1.0000
     1.0000   1.0000   1.0000   1.0000   1.0000   1.0000   1.0000   1.0000
     1.0000   1.0000   1.0000   1.0000   1.0000   1.0000   1.0000   1.0000
     1.0000   1.0000   1.0000   1.0000   1.0000   1.0000   1.0000   1.0000
     1.0000   1.0000   1.0000   1.0000   1.0000   1.0000   1.0000   1.0000
     1.0000   1.0000   1.0000   1.0000   1.0000   1.0000   1.0000   1.0000
     1.0000   1.0000   1.0000   1.0000   1.0000   1.0000   1.0000   1.0000
    -0.0000  -0.0000  -0.0000  -0.0000  -0.0000  -0.0000  -0.0000  -0.0000
    -0.0000  -0.0000  -0.0000  -0.0000  -0.0000  -0.0000

          k = 0.2500 0.2500 0.0000 (  5379 PWs)   bands (ev):

   -79.3775 -79.3775 -79.3769 -79.3769 -46.2179 -46.2179 -46.2126 -46.2126
   -32.7578 -32.7578 -32.7530 -32.7530 -32.6133 -32.6133 -32.6043 -32.6043
    -6.7115  -6.7115  -6.0020  -6.0020  -5.3099  -5.3099  -4.9689  -4.9689
     4.3968   4.3968   5.6490   5.6490   6.0503   6.0503   6.2431   6.2431
     6.9799   6.9799   7.3097   7.3097   8.6301   8.6301   8.9053   8.9053
     9.6568   9.6568   9.8134   9.8134  10.0761  10.0761  11.0530  11.0530
    11.1944  11.1944  11.6797  11.6797  12.1821  12.1821  12.5162  12.5162
    13.1347  13.1347  14.4503  14.4503  15.6571  15.6571  17.3296  17.3296
    17.8115  17.8115  18.3162  18.3162  19.8805  19.8806

     occupation numbers 
     1.0000   1.0000   1.0000   1.0000   1.0000   1.0000   1.0000   1.0000
     1.0000   1.0000   1.0000   1.0000   1.0000   1.0000   1.0000   1.0000
     1.0000   1.0000   1.0000   1.0000   1.0000   1.0000   1.0000   1.0000
     1.0000   1.0000   1.0000   1.0000   1.0000   1.0000   1.0000   1.0000
     1.0000   1.0000   1.0000   1.0000   1.0000   1.0000   1.0000   1.0000
     1.0000   1.0000   1.0000   1.0000   1.0000   1.0000   1.0000   1.0000
     1.0000   1.0000   1.0000   1.0000   1.0000   1.0000   1.0000   1.0000
     1.0000   1.0000  -0.0000  -0.0000  -0.0000  -0.0000  -0.0000  -0.0000
    -0.0000  -0.0000  -0.0000  -0.0000  -0.0000  -0.0000

          k = 0.2500 0.2500 0.1781 (  5391 PWs)   bands (ev):

   -79.3772 -79.3772 -79.3766 -79.3766 -46.2194 -46.2194 -46.2144 -46.2144
   -32.7669 -32.7669 -32.7573 -32.7573 -32.6185 -32.6185 -32.6065 -32.6065
    -6.5861  -6.5861  -5.9009  -5.9009  -5.3738  -5.3738  -5.0442  -5.0442
     4.5661   4.5661   5.8301   5.8301   6.0633   6.0633   6.1760   6.1760
     7.2093   7.2093   7.5980   7.5980   7.9008   7.9008   8.9064   8.9064
     9.0322   9.0322   9.9235   9.9235  10.1653  10.1653  10.6357  10.6357
    11.5422  11.5422  11.8773  11.8773  12.2806  12.2806  12.7634  12.7634
    13.2311  13.2311  14.3179  14.3179  15.9047  15.9047  16.7724  16.7724
    17.4881  17.4881  18.2771  18.2771  20.2445  20.2445

     occupation numbers 
     1.0000   1.0000   1.0000   1.0000   1.0000   1.0000   1.0000   1.0000
     1.0000   1.0000   1.0000   1.0000   1.0000   1.0000   1.0000   1.0000
     1.0000   1.0000   1.0000   1.0000   1.0000   1.0000   1.0000   1.0000
     1.0000   1.0000   1.0000   1.0000   1.0000   1.0000   1.0000   1.0000
     1.0000   1.0000   1.0000   1.0000   1.0000   1.0000   1.0000   1.0000
     1.0000   1.0000   1.0000   1.0000   1.0000   1.0000   1.0000   1.0000
     1.0000   1.0000   1.0000   1.0000   1.0000   1.0000   1.0000   1.0000
     1.0000   1.0000  -0.0000  -0.0000  -0.0000  -0.0000  -0.0000  -0.0000
    -0.0000  -0.0000  -0.0000  -0.0000  -0.0000  -0.0000

          k = 0.2500 0.2500 0.3562 (  5373 PWs)   bands (ev):

   -79.3763 -79.3763 -79.3758 -79.3758 -46.2228 -46.2228 -46.2189 -46.2189
   -32.7893 -32.7893 -32.7726 -32.7726 -32.6265 -32.6265 -32.6109 -32.6109
    -6.2689  -6.2689  -5.6722  -5.6722  -5.5082  -5.5082  -5.2177  -5.2177
     5.0174   5.0174   6.0044   6.0044   6.1637   6.1637   6.5229   6.5229
     6.7259   6.7259   7.7298   7.7298   7.8634   7.8634   8.2098   8.2098
     9.0934   9.0934   9.5074   9.5074   9.9203   9.9203  10.8122  10.8122
    11.5338  11.5338  11.9875  11.9875  12.5614  12.5614  12.9445  12.9445
    13.4906  13.4906  14.1048  14.1048  15.7782  15.7782  16.4525  16.4525
    16.8984  16.8984  18.1670  18.1670  21.0375  21.0375

     occupation numbers 
     1.0000   1.0000   1.0000   1.0000   1.0000   1.0000   1.0000   1.0000
     1.0000   1.0000   1.0000   1.0000   1.0000   1.0000   1.0000   1.0000
     1.0000   1.0000   1.0000   1.0000   1.0000   1.0000   1.0000   1.0000
     1.0000   1.0000   1.0000   1.0000   1.0000   1.0000   1.0000   1.0000
     1.0000   1.0000   1.0000   1.0000   1.0000   1.0000   1.0000   1.0000
     1.0000   1.0000   1.0000   1.0000   1.0000   1.0000   1.0000   1.0000
     1.0000   1.0000   1.0000   1.0000   1.0000   1.0000   1.0000   1.0000
     1.0000   1.0000  -0.0000  -0.0000  -0.0000  -0.0000  -0.0000  -0.0000
    -0.0000  -0.0000  -0.0000  -0.0000  -0.0000  -0.0000

          k = 0.2500 0.2500 0.5343 (  5357 PWs)   bands (ev):

   -79.3754 -79.3754 -79.3751 -79.3751 -46.2260 -46.2260 -46.2236 -46.2236
   -32.8132 -32.8132 -32.7925 -32.7925 -32.6292 -32.6292 -32.6139 -32.6139
    -5.9360  -5.9360  -5.6773  -5.6773  -5.4486  -5.4486  -5.3266  -5.3266
     5.5687   5.5687   5.7905   5.7905   6.1436   6.1436   6.3805   6.3805
     6.7121   6.7121   7.5990   7.5990   8.2777   8.2777   8.5852   8.5852
     8.7595   8.7595   9.4962   9.4962   9.6946   9.6946  10.6588  10.6588
    11.4621  11.4621  12.0132  12.0132  12.2995  12.2995  13.1312  13.1312
    13.3473  13.3473  14.3506  14.3506  15.1708  15.1708  16.2429  16.2429
    16.9453  16.9453  18.1124  18.1124  22.0228  22.0228

     occupation numbers 
     1.0000   1.0000   1.0000   1.0000   1.0000   1.0000   1.0000   1.0000
     1.0000   1.0000   1.0000   1.0000   1.0000   1.0000   1.0000   1.0000
     1.0000   1.0000   1.0000   1.0000   1.0000   1.0000   1.0000   1.0000
     1.0000   1.0000   1.0000   1.0000   1.0000   1.0000   1.0000   1.0000
     1.0000   1.0000   1.0000   1.0000   1.0000   1.0000   1.0000   1.0000
     1.0000   1.0000   1.0000   1.0000   1.0000   1.0000   1.0000   1.0000
     1.0000   1.0000   1.0000   1.0000   1.0000   1.0000   1.0000   1.0000
     1.0000   1.0000  -0.0000  -0.0000  -0.0000  -0.0000  -0.0000  -0.0000
    -0.0000  -0.0000  -0.0000  -0.0000  -0.0000  -0.0000

          k = 0.2500 0.2500-0.7124 (  5372 PWs)   bands (ev):

   -79.3749 -79.3749 -79.3749 -79.3749 -46.2272 -46.2272 -46.2258 -46.2258
   -32.8235 -32.8235 -32.8018 -32.8018 -32.6290 -32.6290 -32.6150 -32.6150
    -5.8370  -5.8370  -5.6738  -5.6738  -5.4851  -5.4851  -5.2644  -5.2644
     5.4891   5.4891   5.9108   5.9108   6.1816   6.1816   6.3055   6.3055
     6.5464   6.5464   8.0253   8.0253   8.3216   8.3216   8.5990   8.5990
     9.0688   9.0688   9.3138   9.3138   9.6549   9.6549  10.2954  10.2954
    11.6295  11.6295  11.8964  11.8964  12.1204  12.1204  12.8986  12.8986
    13.4966  13.4966  14.5130  14.5130  14.9721  14.9721  16.1012  16.1012
    16.9721  16.9721  18.1536  18.1536  22.9453  22.9453

     occupation numbers 
     1.0000   1.0000   1.0000   1.0000   1.0000   1.0000   1.0000   1.0000
     1.0000   1.0000   1.0000   1.0000   1.0000   1.0000   1.0000   1.0000
     1.0000   1.0000   1.0000   1.0000   1.0000   1.0000   1.0000   1.0000
     1.0000   1.0000   1.0000   1.0000   1.0000   1.0000   1.0000   1.0000
     1.0000   1.0000   1.0000   1.0000   1.0000   1.0000   1.0000   1.0000
     1.0000   1.0000   1.0000   1.0000   1.0000   1.0000   1.0000   1.0000
     1.0000   1.0000   1.0000   1.0000   1.0000   1.0000   1.0000   1.0000
     1.0000   1.0000  -0.0000  -0.0000  -0.0000  -0.0000  -0.0000  -0.0000
    -0.0000  -0.0000  -0.0000  -0.0000  -0.0000  -0.0000

          k = 0.2500-0.5000 0.0000 (  5384 PWs)   bands (ev):

   -79.3772 -79.3772 -79.3772 -79.3772 -46.2153 -46.2153 -46.2153 -46.2153
   -32.7553 -32.7553 -32.7553 -32.7553 -32.6091 -32.6091 -32.6091 -32.6091
    -6.3576  -6.3576  -6.3576  -6.3576  -5.1510  -5.1510  -5.1510  -5.1510
     4.8756   4.8756   4.8756   4.8756   6.1062   6.1062   6.1062   6.1062
     7.8833   7.8833   7.8833   7.8833   8.6768   8.6768   8.6768   8.6768
     9.1476   9.1476   9.1476   9.1476  10.2865  10.2865  10.2865  10.2865
    11.7993  11.7993  11.7993  11.7993  12.1690  12.1690  12.1690  12.1690
    13.8747  13.8747  13.8747  13.8747  16.7369  16.7369  16.7369  16.7369
    17.6803  17.6803  17.6803  17.6803  21.4456  21.4456

     occupation numbers 
     1.0000   1.0000   1.0000   1.0000   1.0000   1.0000   1.0000   1.0000
     1.0000   1.0000   1.0000   1.0000   1.0000   1.0000   1.0000   1.0000
     1.0000   1.0000   1.0000   1.0000   1.0000   1.0000   1.0000   1.0000
     1.0000   1.0000   1.0000   1.0000   1.0000   1.0000   1.0000   1.0000
     1.0000   1.0000   1.0000   1.0000   1.0000   1.0000   1.0000   1.0000
     1.0000   1.0000   1.0000   1.0000   1.0000   1.0000   1.0000   1.0000
     1.0000   1.0000   1.0000   1.0000   1.0000   1.0000   1.0000   1.0000
     0.2149   0.2149   0.2149   0.2149  -0.0000  -0.0000  -0.0000  -0.0000
    -0.0000  -0.0000  -0.0000  -0.0000  -0.0000  -0.0000

          k = 0.2500-0.5000 0.1781 (  5392 PWs)   bands (ev):

   -79.3769 -79.3769 -79.3769 -79.3769 -46.2172 -46.2172 -46.2166 -46.2166
   -32.7666 -32.7666 -32.7575 -32.7575 -32.6159 -32.6159 -32.6097 -32.6097
    -6.2564  -6.2564  -6.2373  -6.2373  -5.2269  -5.2269  -5.2040  -5.2040
     5.0008   5.0008   5.0496   5.0496   6.1177   6.1177   6.1197   6.1197
     7.9636   7.9636   7.9794   7.9794   8.5261   8.5261   8.5329   8.5329
     8.8453   8.8453   8.9214   8.9214  10.2123  10.2123  10.2207  10.2207
    11.9214  11.9214  11.9248  11.9248  12.4233  12.4233  12.4664  12.4664
    13.7179  13.7179  13.8208  13.8208  16.6312  16.6312  16.8469  16.8469
    17.3326  17.3326  17.4646  17.4646  21.7005  21.7098

     occupation numbers 
     1.0000   1.0000   1.0000   1.0000   1.0000   1.0000   1.0000   1.0000
     1.0000   1.0000   1.0000   1.0000   1.0000   1.0000   1.0000   1.0000
     1.0000   1.0000   1.0000   1.0000   1.0000   1.0000   1.0000   1.0000
     1.0000   1.0000   1.0000   1.0000   1.0000   1.0000   1.0000   1.0000
     1.0000   1.0000   1.0000   1.0000   1.0000   1.0000   1.0000   1.0000
     1.0000   1.0000   1.0000   1.0000   1.0000   1.0000   1.0000   1.0000
     1.0000   1.0000   1.0000   1.0000   1.0000   1.0000   1.0000   1.0000
     1.0096   1.0096   0.8300   0.8300  -0.0000  -0.0000  -0.0000  -0.0000
    -0.0000  -0.0000  -0.0000  -0.0000  -0.0000  -0.0000

          k = 0.2500-0.5000 0.3562 (  5368 PWs)   bands (ev):

   -79.3761 -79.3761 -79.3761 -79.3761 -46.2214 -46.2214 -46.2204 -46.2204
   -32.7893 -32.7893 -32.7728 -32.7728 -32.6244 -32.6244 -32.6134 -32.6134
    -5.9943  -5.9943  -5.9713  -5.9713  -5.3820  -5.3820  -5.3261  -5.3261
     5.3453   5.3453   5.4084   5.4084   6.1981   6.1981   6.2501   6.2501
     7.3195   7.3195   7.3323   7.3323   8.6265   8.6265   8.6486   8.6486
     8.9615   8.9615   9.0087   9.0087  10.0448  10.0448  10.0565  10.0565
    12.1144  12.1144  12.1711  12.1711  12.5080  12.5080  12.6721  12.6721
    13.5297  13.5297  13.8053  13.8053  16.1379  16.1379  16.2630  16.2630
    17.4673  17.4673  17.4678  17.4678  22.2513  22.2548

     occupation numbers 
     1.0000   1.0000   1.0000   1.0000   1.0000   1.0000   1.0000   1.0000
     1.0000   1.0000   1.0000   1.0000   1.0000   1.0000   1.0000   1.0000
     1.0000   1.0000   1.0000   1.0000   1.0000   1.0000   1.0000   1.0000
     1.0000   1.0000   1.0000   1.0000   1.0000   1.0000   1.0000   1.0000
     1.0000   1.0000   1.0000   1.0000   1.0000   1.0000   1.0000   1.0000
     1.0000   1.0000   1.0000   1.0000   1.0000   1.0000   1.0000   1.0000
     1.0000   1.0000   1.0000   1.0000   1.0000   1.0000   1.0000   1.0000
     1.0000   1.0000   0.9448   0.9448  -0.0000  -0.0000  -0.0000  -0.0000
    -0.0000  -0.0000  -0.0000  -0.0000  -0.0000  -0.0000

          k = 0.2500-0.5000 0.5343 (  5362 PWs)   bands (ev):

   -79.3752 -79.3752 -79.3752 -79.3752 -46.2255 -46.2255 -46.2242 -46.2242
   -32.8132 -32.8132 -32.7927 -32.7927 -32.6284 -32.6284 -32.6150 -32.6150
    -5.7848  -5.7848  -5.7711  -5.7711  -5.4722  -5.4722  -5.3532  -5.3532
     5.6382   5.6382   5.6415   5.6415   6.0869   6.0869   6.2409   6.2409
     7.0892   7.0892   7.1037   7.1037   8.4265   8.4265   8.5432   8.5432
     9.2343   9.2343   9.2688   9.2688  10.3347  10.3347  10.3419  10.3419
    11.8838  11.8838  11.8995  11.8995  12.1844  12.1844  12.5075  12.5075
    13.6997  13.6997  14.0427  14.0427  15.5999  15.5999  15.6295  15.6295
    17.6707  17.6707  17.7612  17.7612  22.8459  22.8472

     occupation numbers 
     1.0000   1.0000   1.0000   1.0000   1.0000   1.0000   1.0000   1.0000
     1.0000   1.0000   1.0000   1.0000   1.0000   1.0000   1.0000   1.0000
     1.0000   1.0000   1.0000   1.0000   1.0000   1.0000   1.0000   1.0000
     1.0000   1.0000   1.0000   1.0000   1.0000   1.0000   1.0000   1.0000
     1.0000   1.0000   1.0000   1.0000   1.0000   1.0000   1.0000   1.0000
     1.0000   1.0000   1.0000   1.0000   1.0000   1.0000   1.0000   1.0000
     1.0000   1.0000   1.0000   1.0000   1.0000   1.0000   1.0000   1.0000
     1.0038   1.0038  -0.0002  -0.0002  -0.0000  -0.0000  -0.0000  -0.0000
    -0.0000  -0.0000  -0.0000  -0.0000  -0.0000  -0.0000

          k = 0.2500-0.5000-0.7124 (  5356 PWs)   bands (ev):

   -79.3749 -79.3749 -79.3749 -79.3749 -46.2272 -46.2272 -46.2258 -46.2258
   -32.8236 -32.8236 -32.8019 -32.8019 -32.6291 -32.6291 -32.6151 -32.6151
    -5.7681  -5.7681  -5.7438  -5.7438  -5.4371  -5.4371  -5.2977  -5.2977
     5.6072   5.6072   5.6335   5.6335   6.0268   6.0268   6.1764   6.1764
     7.2962   7.2962   7.3143   7.3143   8.1986   8.1986   8.3367   8.3367
     9.4428   9.4428   9.4765   9.4765  10.5392  10.5392  10.5465  10.5465
    11.6215  11.6215  11.6964  11.6964  11.9529  11.9529  12.3329  12.3329
    13.8391  13.8391  14.1769  14.1769  15.3974  15.3974  15.4016  15.4016
    17.7592  17.7592  17.8728  17.8728  23.1723  23.2984

     occupation numbers 
     1.0000   1.0000   1.0000   1.0000   1.0000   1.0000   1.0000   1.0000
     1.0000   1.0000   1.0000   1.0000   1.0000   1.0000   1.0000   1.0000
     1.0000   1.0000   1.0000   1.0000   1.0000   1.0000   1.0000   1.0000
     1.0000   1.0000   1.0000   1.0000   1.0000   1.0000   1.0000   1.0000
     1.0000   1.0000   1.0000   1.0000   1.0000   1.0000   1.0000   1.0000
     1.0000   1.0000   1.0000   1.0000   1.0000   1.0000   1.0000   1.0000
     1.0000   1.0000   1.0000   1.0000   1.0000   1.0000   1.0000   1.0000
     0.6352   0.6352  -0.0000  -0.0000  -0.0000  -0.0000  -0.0000  -0.0000
    -0.0000  -0.0000  -0.0000  -0.0000  -0.0000  -0.0000

          k =-0.5000-0.5000 0.0000 (  5412 PWs)   bands (ev):

   -79.3772 -79.3772 -79.3772 -79.3772 -46.2153 -46.2153 -46.2153 -46.2153
   -32.7566 -32.7566 -32.7566 -32.7566 -32.6080 -32.6080 -32.6080 -32.6080
    -6.4179  -6.4179  -6.4179  -6.4179  -5.0422  -5.0422  -5.0422  -5.0422
     4.3962   4.3962   4.3962   4.3962   6.0100   6.0100   6.0100   6.0100
     8.7376   8.7376   8.7376   8.7376   8.7728   8.7728   8.7728   8.7728
     9.5893   9.5893   9.5893   9.5893  10.3543  10.3543  10.3543  10.3543
    11.1243  11.1243  11.1243  11.1243  11.7488  11.7488  11.7488  11.7488
    14.0560  14.0560  14.0560  14.0560  16.2366  16.2366  16.2366  16.2366
    17.9261  17.9261  17.9261  17.9261  22.3933  22.3933

     occupation numbers 
     1.0000   1.0000   1.0000   1.0000   1.0000   1.0000   1.0000   1.0000
     1.0000   1.0000   1.0000   1.0000   1.0000   1.0000   1.0000   1.0000
     1.0000   1.0000   1.0000   1.0000   1.0000   1.0000   1.0000   1.0000
     1.0000   1.0000   1.0000   1.0000   1.0000   1.0000   1.0000   1.0000
     1.0000   1.0000   1.0000   1.0000   1.0000   1.0000   1.0000   1.0000
     1.0000   1.0000   1.0000   1.0000   1.0000   1.0000   1.0000   1.0000
     1.0000   1.0000   1.0000   1.0000   1.0000   1.0000   1.0000   1.0000
    -0.0001  -0.0001  -0.0001  -0.0001  -0.0000  -0.0000  -0.0000  -0.0000
    -0.0000  -0.0000  -0.0000  -0.0000  -0.0000  -0.0000

          k =-0.5000-0.5000 0.1781 (  5404 PWs)   bands (ev):

   -79.3769 -79.3769 -79.3769 -79.3769 -46.2169 -46.2169 -46.2169 -46.2169
   -32.7632 -32.7632 -32.7632 -32.7632 -32.6119 -32.6119 -32.6119 -32.6119
    -6.3058  -6.3058  -6.3058  -6.3058  -5.1139  -5.1139  -5.1139  -5.1139
     4.5616   4.5616   4.5616   4.5616   6.0120   6.0120   6.0120   6.0120
     8.7619   8.7619   8.7619   8.7619   8.9522   8.9522   8.9522   8.9522
     9.0681   9.0681   9.0681   9.0681   9.9062   9.9062   9.9062   9.9062
    11.5413  11.5413  11.5413  11.5413  12.1243  12.1243  12.1243  12.1243
    13.8893  13.8893  13.8893  13.8893  16.4384  16.4384  16.4384  16.4384
    17.5718  17.5718  17.5718  17.5718  22.6502  22.6502

     occupation numbers 
     1.0000   1.0000   1.0000   1.0000   1.0000   1.0000   1.0000   1.0000
     1.0000   1.0000   1.0000   1.0000   1.0000   1.0000   1.0000   1.0000
     1.0000   1.0000   1.0000   1.0000   1.0000   1.0000   1.0000   1.0000
     1.0000   1.0000   1.0000   1.0000   1.0000   1.0000   1.0000   1.0000
     1.0000   1.0000   1.0000   1.0000   1.0000   1.0000   1.0000   1.0000
     1.0000   1.0000   1.0000   1.0000   1.0000   1.0000   1.0000   1.0000
     1.0000   1.0000   1.0000   1.0000   1.0000   1.0000   1.0000   1.0000
     0.0907   0.0907   0.0907   0.0907  -0.0000  -0.0000  -0.0000  -0.0000
    -0.0000  -0.0000  -0.0000  -0.0000  -0.0000  -0.0000

          k =-0.5000-0.5000 0.3562 (  5388 PWs)   bands (ev):

   -79.3761 -79.3761 -79.3761 -79.3761 -46.2209 -46.2209 -46.2209 -46.2209
   -32.7816 -32.7816 -32.7816 -32.7816 -32.6185 -32.6185 -32.6185 -32.6185
    -6.0278  -6.0278  -6.0278  -6.0278  -5.2817  -5.2817  -5.2817  -5.2817
     4.9972   4.9972   4.9972   4.9972   6.0642   6.0642   6.0642   6.0642
     7.8324   7.8324   7.8324   7.8324   8.8997   8.8997   8.8997   8.8997
     9.1843   9.1843   9.1843   9.1843   9.8865   9.8865   9.8865   9.8865
    11.9090  11.9090  11.9090  11.9090  12.6892  12.6892  12.6892  12.6892
    13.4815  13.4815  13.4815  13.4815  16.6064  16.6064  16.6064  16.6064
    17.0696  17.0696  17.0696  17.0696  22.9364  22.9364

     occupation numbers 
     1.0000   1.0000   1.0000   1.0000   1.0000   1.0000   1.0000   1.0000
     1.0000   1.0000   1.0000   1.0000   1.0000   1.0000   1.0000   1.0000
     1.0000   1.0000   1.0000   1.0000   1.0000   1.0000   1.0000   1.0000
     1.0000   1.0000   1.0000   1.0000   1.0000   1.0000   1.0000   1.0000
     1.0000   1.0000   1.0000   1.0000   1.0000   1.0000   1.0000   1.0000
     1.0000   1.0000   1.0000   1.0000   1.0000   1.0000   1.0000   1.0000
     1.0000   1.0000   1.0000   1.0000   1.0000   1.0000   1.0000   1.0000
     1.0000   1.0000   1.0000   1.0000  -0.0000  -0.0000  -0.0000  -0.0000
    -0.0000  -0.0000  -0.0000  -0.0000  -0.0000  -0.0000

          k =-0.5000-0.5000 0.5343 (  5360 PWs)   bands (ev):

   -79.3752 -79.3752 -79.3752 -79.3752 -46.2249 -46.2249 -46.2249 -46.2249
   -32.8031 -32.8031 -32.8031 -32.8031 -32.6218 -32.6218 -32.6218 -32.6218
    -5.7419  -5.7419  -5.7419  -5.7419  -5.4378  -5.4378  -5.4378  -5.4378
     5.4996   5.4996   5.4996   5.4996   6.1766   6.1766   6.1766   6.1766
     6.9816   6.9816   6.9816   6.9816   8.4559   8.4559   8.4559   8.4559
     9.4892   9.4892   9.4892   9.4892  10.4286  10.4286  10.4286  10.4286
    11.9762  11.9762  11.9762  11.9762  12.8019  12.8019  12.8019  12.8019
    13.3265  13.3265  13.3265  13.3265  16.2333  16.2333  16.2333  16.2333
    17.0524  17.0524  17.0524  17.0524  23.0920  23.0920

     occupation numbers 
     1.0000   1.0000   1.0000   1.0000   1.0000   1.0000   1.0000   1.0000
     1.0000   1.0000   1.0000   1.0000   1.0000   1.0000   1.0000   1.0000
     1.0000   1.0000   1.0000   1.0000   1.0000   1.0000   1.0000   1.0000
     1.0000   1.0000   1.0000   1.0000   1.0000   1.0000   1.0000   1.0000
     1.0000   1.0000   1.0000   1.0000   1.0000   1.0000   1.0000   1.0000
     1.0000   1.0000   1.0000   1.0000   1.0000   1.0000   1.0000   1.0000
     1.0000   1.0000   1.0000   1.0000   1.0000   1.0000   1.0000   1.0000
     1.0000   1.0000   1.0000   1.0000  -0.0000  -0.0000  -0.0000  -0.0000
    -0.0000  -0.0000  -0.0000  -0.0000  -0.0000  -0.0000

          k =-0.5000-0.5000-0.7124 (  5384 PWs)   bands (ev):

   -79.3749 -79.3749 -79.3749 -79.3749 -46.2265 -46.2265 -46.2265 -46.2265
   -32.8126 -32.8126 -32.8126 -32.8126 -32.6225 -32.6225 -32.6225 -32.6225
    -5.6335  -5.6335  -5.6335  -5.6335  -5.4863  -5.4863  -5.4863  -5.4863
     5.7370   5.7370   5.7370   5.7370   6.2367   6.2367   6.2367   6.2367
     6.6642   6.6642   6.6642   6.6642   8.2609   8.2609   8.2609   8.2609
     9.6585   9.6585   9.6585   9.6585  10.6628  10.6628  10.6628  10.6628
    11.9415  11.9415  11.9415  11.9415  12.6179  12.6179  12.6179  12.6179
    13.4473  13.4473  13.4473  13.4473  16.0758  16.0758  16.0758  16.0758
    17.0251  17.0251  17.0251  17.0251  23.0640  23.0640

     occupation numbers 
     1.0000   1.0000   1.0000   1.0000   1.0000   1.0000   1.0000   1.0000
     1.0000   1.0000   1.0000   1.0000   1.0000   1.0000   1.0000   1.0000
     1.0000   1.0000   1.0000   1.0000   1.0000   1.0000   1.0000   1.0000
     1.0000   1.0000   1.0000   1.0000   1.0000   1.0000   1.0000   1.0000
     1.0000   1.0000   1.0000   1.0000   1.0000   1.0000   1.0000   1.0000
     1.0000   1.0000   1.0000   1.0000   1.0000   1.0000   1.0000   1.0000
     1.0000   1.0000   1.0000   1.0000   1.0000   1.0000   1.0000   1.0000
     1.0000   1.0000   1.0000   1.0000  -0.0000  -0.0000  -0.0000  -0.0000
    -0.0000  -0.0000  -0.0000  -0.0000  -0.0000  -0.0000

     the Fermi energy is    13.8501 ev

!    total energy              =    -553.07989287 Ry
     estimated scf accuracy    <          1.9E-11 Ry
     smearing contrib. (-TS)   =      -0.00013108 Ry
     internal energy E=F+TS    =    -553.07976179 Ry

     The total energy is F=E-TS. E is the sum of the following terms:
     one-electron contribution =    -190.90973784 Ry
     hartree contribution      =     122.72925562 Ry
     xc contribution           =     -69.91326905 Ry
     ewald contribution        =    -414.98601052 Ry

     convergence has been achieved in  10 iterations

     Forces acting on atoms (cartesian axes, Ry/au):

     atom    1 type  2   force =     0.00000000    0.00000000    0.00000000
     atom    2 type  2   force =     0.00000000    0.00000000    0.00000000
     atom    3 type  1   force =    -0.00007789    0.00007789   -0.00000000
     atom    4 type  1   force =     0.00007789    0.00007789    0.00000000
     atom    5 type  1   force =    -0.00007789   -0.00007789    0.00000000
     atom    6 type  1   force =     0.00007789   -0.00007789   -0.00000000
     The non-local contrib.  to forces
     atom    1 type  2   force =     0.00000000    0.00000000    0.00000000
     atom    2 type  2   force =     0.00000000    0.00000000    0.00000000
     atom    3 type  1   force =    -0.05449536    0.05449536    0.00000000
     atom    4 type  1   force =     0.05449536    0.05449536    0.00000000
     atom    5 type  1   force =    -0.05449536   -0.05449536    0.00000000
     atom    6 type  1   force =     0.05449536   -0.05449536    0.00000000
     The ionic contribution  to forces
     atom    1 type  2   force =    -0.00000000   -0.00000000    0.00000000
     atom    2 type  2   force =     0.00000000    0.00000000   -0.00000000
     atom    3 type  1   force =     1.42937233   -1.42937233    0.00000000
     atom    4 type  1   force =    -1.42937233   -1.42937233   -0.00000000
     atom    5 type  1   force =     1.42937233    1.42937233    0.00000000
     atom    6 type  1   force =    -1.42937233    1.42937233    0.00000000
     The local contribution  to forces
     atom    1 type  2   force =     0.00000000    0.00000000    0.00000000
     atom    2 type  2   force =     0.00000000    0.00000000    0.00000000
     atom    3 type  1   force =    -1.37495387    1.37495387    0.00000000
     atom    4 type  1   force =     1.37495387    1.37495387    0.00000000
     atom    5 type  1   force =    -1.37495387   -1.37495387   -0.00000000
     atom    6 type  1   force =     1.37495387   -1.37495387    0.00000000
     The core correction contribution to forces
     atom    1 type  2   force =     0.00000000    0.00000000    0.00000000
     atom    2 type  2   force =     0.00000000    0.00000000    0.00000000
     atom    3 type  1   force =     0.00000000    0.00000000    0.00000000
     atom    4 type  1   force =     0.00000000    0.00000000    0.00000000
     atom    5 type  1   force =     0.00000000    0.00000000    0.00000000
     atom    6 type  1   force =     0.00000000    0.00000000    0.00000000
     The Hubbard contrib.    to forces
     atom    1 type  2   force =     0.00000000    0.00000000    0.00000000
     atom    2 type  2   force =     0.00000000    0.00000000    0.00000000
     atom    3 type  1   force =     0.00000000    0.00000000    0.00000000
     atom    4 type  1   force =     0.00000000    0.00000000    0.00000000
     atom    5 type  1   force =     0.00000000    0.00000000    0.00000000
     atom    6 type  1   force =     0.00000000    0.00000000    0.00000000
     The SCF correction term to forces
     atom    1 type  2   force =     0.00000000    0.00000000    0.00000000
     atom    2 type  2   force =    -0.00000000   -0.00000000   -0.00000000
     atom    3 type  1   force =    -0.00000100    0.00000100    0.00000000
     atom    4 type  1   force =     0.00000100    0.00000100   -0.00000000
     atom    5 type  1   force =    -0.00000100   -0.00000100   -0.00000000
     atom    6 type  1   force =     0.00000100   -0.00000100    0.00000000

     Total force =     0.000220     Total SCF correction =     0.000003


     Computing stress (Cartesian axis) and pressure

          total   stress  (Ry/bohr**3)                   (kbar)     P=      -20.80
  -0.00012419   0.00000000   0.00000000          -18.27        0.00        0.00
   0.00000000  -0.00012419   0.00000000            0.00      -18.27        0.00
   0.00000000   0.00000000  -0.00017579            0.00        0.00      -25.86

     kinetic stress (kbar)  48460.89      0.00      0.00
                                0.00  48460.89      0.00
                                0.00      0.00  47507.51

     local   stress (kbar) -12699.96      0.00     -0.00
                                0.00 -12699.96      0.00
                               -0.00      0.00 -44373.54

     nonloc. stress (kbar)  14531.64      0.00      0.00
                                0.00  14531.64      0.00
                                0.00      0.00  14738.18

     hartree stress (kbar)   9613.37      0.00      0.00
                                0.00   9613.37      0.00
                                0.00      0.00  21372.85

     exc-cor stress (kbar)  -7287.99      0.00      0.00
                                0.00  -7287.99      0.00
                                0.00      0.00  -7263.41

     corecor stress (kbar)      0.00      0.00      0.00
                                0.00      0.00      0.00
                                0.00      0.00      0.00

     ewald   stress (kbar) -52636.21     -0.00     -0.00
                               -0.00 -52636.21     -0.00
                               -0.00     -0.00 -32007.45

     hubbard stress (kbar)      0.00      0.00      0.00
                                0.00      0.00      0.00
                                0.00      0.00      0.00

     DFT-D   stress (kbar)      0.00      0.00      0.00
                                0.00      0.00      0.00
                                0.00      0.00      0.00

     XDM     stress (kbar)      0.00      0.00      0.00
                                0.00      0.00      0.00
                                0.00      0.00      0.00

     dft-nl  stress (kbar)      0.00      0.00      0.00
                                0.00      0.00      0.00
                                0.00      0.00      0.00

     TS-vdW  stress (kbar)      0.00      0.00      0.00
                                0.00      0.00      0.00
                                0.00      0.00      0.00


                                0.00      0.00      0.00
                                0.00      0.00      0.00


                                0.00      0.00      0.00


     Writing all to output data dir tmp/espresso.save/
 
     init_run     :      3.05s CPU      1.60s WALL (       1 calls)
     electrons    :    102.33s CPU     52.44s WALL (       1 calls)
     forces       :      5.64s CPU      2.89s WALL (       1 calls)
     stress       :      7.70s CPU      3.89s WALL (       1 calls)

     Called by init_run:
     wfcinit      :      2.98s CPU      1.54s WALL (       1 calls)
     wfcinit:atom :      0.01s CPU      0.01s WALL (      30 calls)
     wfcinit:wfcr :      2.90s CPU      1.50s WALL (      30 calls)
     potinit      :      0.02s CPU      0.01s WALL (       1 calls)
     hinit0       :      0.03s CPU      0.03s WALL (       1 calls)

     Called by electrons:
     c_bands      :     93.69s CPU     47.97s WALL (      10 calls)
     sum_band     :      8.48s CPU      4.36s WALL (      10 calls)
     v_of_rho     :      0.05s CPU      0.03s WALL (      11 calls)
     v_h          :      0.00s CPU      0.00s WALL (      11 calls)
     v_xc         :      0.04s CPU      0.02s WALL (      11 calls)
     mix_rho      :      0.05s CPU      0.02s WALL (      10 calls)

     Called by c_bands:
     init_us_2    :      0.28s CPU      0.15s WALL (     690 calls)
     init_us_2:cp :      0.28s CPU      0.15s WALL (     690 calls)
     cegterg      :     86.35s CPU     44.22s WALL (     300 calls)

     Called by sum_band:
     sum_band:wei :      0.05s CPU      0.02s WALL (      10 calls)
     sum_band:loo :      8.41s CPU      4.33s WALL (      10 calls)
     sum_band:buf :      0.05s CPU      0.03s WALL (     300 calls)
     sum_band:ini :      0.09s CPU      0.05s WALL (     300 calls)

     Called by *egterg:
     cdiaghg      :     12.84s CPU      6.53s WALL (    1026 calls)
     cegterg:over :      5.26s CPU      2.68s WALL (     726 calls)
     cegterg:upda :      4.22s CPU      2.15s WALL (     726 calls)
     cegterg:last :      7.41s CPU      3.76s WALL (     600 calls)
     cdiaghg:chol :      0.60s CPU      0.30s WALL (    1026 calls)
     cdiaghg:inve :      0.09s CPU      0.05s WALL (    1026 calls)
     cdiaghg:para :      1.34s CPU      0.68s WALL (    2052 calls)
     h_psi        :     57.34s CPU     29.49s WALL (    1056 calls)
     g_psi        :      0.09s CPU      0.04s WALL (     726 calls)

     Called by h_psi:
     h_psi:calbec :      6.91s CPU      3.61s WALL (    1056 calls)
     vloc_psi     :     40.25s CPU     20.69s WALL (    1056 calls)
     add_vuspsi   :     10.04s CPU      5.12s WALL (    1056 calls)

     General routines
     calbec       :      8.72s CPU      4.55s WALL (    1206 calls)
     fft          :      0.06s CPU      0.03s WALL (     150 calls)
     ffts         :      0.01s CPU      0.01s WALL (      40 calls)
     fftw         :     45.59s CPU     23.45s WALL (  257900 calls)
 
     Parallel routines
 
     PWSCF        :   2m 2.18s CPU   1m 3.46s WALL

 
   This run was terminated on:  10:55: 5  10Apr2022            

=------------------------------------------------------------------------------=
   JOB DONE.
=------------------------------------------------------------------------------=
