
     Program PWSCF v.7.0 starts on 10Apr2022 at  9:44: 1 

     This program is part of the open-source Quantum ESPRESSO suite
     for quantum simulation of materials; please cite
         "P. Giannozzi et al., J. Phys.:Condens. Matter 21 395502 (2009);
         "P. Giannozzi et al., J. Phys.:Condens. Matter 29 465901 (2017);
         "P. Giannozzi et al., J. Chem. Phys. 152 154105 (2020);
          URL http://www.quantum-espresso.org", 
     in publications or presentations arising from this work. More details at
     http://www.quantum-espresso.org/quote

     Parallel version (MPI & OpenMP), running on      64 processor cores
     Number of MPI processes:                32
     Threads/MPI process:                     2

     MPI processes distributed on     1 nodes
     R & G space division:  proc/nbgrp/npool/nimage =      32
     231433 MiB available memory on the printing compute node when the environment starts
 
     Reading input from kpoints_882.pwi
Warning: card &CELL ignored
Warning: card / ignored

     Current dimensions of program PWSCF are:
     Max number of different atomic species (ntypx) = 10
     Max number of k-points (npk) =  40000
     Max angular momentum in pseudopotentials (lmaxx) =  4

     Subspace diagonalization in iterative solution of the eigenvalue problem:
     one sub-group per band group will be used
     scalapack distributed-memory algorithm (size of sub-group:  5*  5 procs)

 
     Parallelization info
     --------------------
     sticks:   dense  smooth     PW     G-vecs:    dense   smooth      PW
     Min          58      58     17                 1342     1342     211
     Max          59      59     18                 1345     1345     214
     Sum        1885    1885    553                42999    42999    6811
 
     Using Slab Decomposition
 

     Title: 
     IrO2 Unit Cell                                                             


     bravais-lattice index     =            6
     lattice parameter (alat)  =       8.5888  a.u.
     unit-cell volume          =     444.6868 (a.u.)^3
     number of atoms/cell      =            6
     number of atomic types    =            2
     number of electrons       =        58.00
     number of Kohn-Sham states=           70
     kinetic-energy cutoff     =      80.0000  Ry
     charge density cutoff     =     320.0000  Ry
     scf convergence threshold =      1.0E-09
     mixing beta               =       0.7000
     number of iterations used =            8  plain     mixing
     Exchange-correlation= PBE
                           (   1   4   3   4   0   0   0)
     Non magnetic calculation with spin-orbit


     celldm(1)=   8.588800  celldm(2)=   0.000000  celldm(3)=   0.701870
     celldm(4)=   0.000000  celldm(5)=   0.000000  celldm(6)=   0.000000

     crystal axes: (cart. coord. in units of alat)
               a(1) = (   1.000000   0.000000   0.000000 )  
               a(2) = (   0.000000   1.000000   0.000000 )  
               a(3) = (   0.000000   0.000000   0.701870 )  

     reciprocal axes: (cart. coord. in units 2 pi/alat)
               b(1) = (  1.000000  0.000000  0.000000 )  
               b(2) = (  0.000000  1.000000  0.000000 )  
               b(3) = (  0.000000  0.000000  1.424765 )  


     PseudoPot. # 1 for O  read from file:
     ../../XX_PSEUDO/O_ONCV_PBE_fr.upf
     MD5 check sum: 59c925217d3b58c6d762355590b68b09
     Pseudo is Norm-conserving, Zval =  6.0
     Generated using ONCVPSP code by D. R. Hamann
     Using radial grid of  936 points,  6 beta functions with: 
                l(1) =   0
                l(2) =   0
                l(3) =   1
                l(4) =   1
                l(5) =   1
                l(6) =   1

     PseudoPot. # 2 for Ir read from file:
     ../../XX_PSEUDO/Ir_ONCV_PBE_fr.upf
     MD5 check sum: 924e909c4146afa09f62ee3401806954
     Pseudo is Norm-conserving, Zval = 17.0
     Generated using ONCVPSP code by D. R. Hamann
     Using radial grid of 1310 points, 14 beta functions with: 
                l(1) =   0
                l(2) =   0
                l(3) =   1
                l(4) =   1
                l(5) =   1
                l(6) =   1
                l(7) =   2
                l(8) =   2
                l(9) =   2
               l(10) =   2
               l(11) =   3
               l(12) =   3
               l(13) =   3
               l(14) =   3

     atomic species   valence    mass     pseudopotential
        O              6.00    15.99900     O ( 1.00)
        Ir            17.00   192.21700     Ir( 1.00)

     16 Sym. Ops., with inversion, found ( 8 have fractional translation)


                                    s                        frac. trans.

      isym =  1     identity                                     

 cryst.   s( 1) = (     1          0          0      )
                  (     0          1          0      )
                  (     0          0          1      )

 cart.    s( 1) = (  1.0000000  0.0000000  0.0000000 )
                  (  0.0000000  1.0000000  0.0000000 )
                  (  0.0000000  0.0000000  1.0000000 )


      isym =  2     180 deg rotation - cart. axis [0,0,1]        

 cryst.   s( 2) = (    -1          0          0      )
                  (     0         -1          0      )
                  (     0          0          1      )

 cart.    s( 2) = ( -1.0000000  0.0000000  0.0000000 )
                  (  0.0000000 -1.0000000  0.0000000 )
                  (  0.0000000  0.0000000  1.0000000 )


      isym =  3     180 deg rotation - cart. axis [0,1,0]        

 cryst.   s( 3) = (    -1          0          0      )    f =(  0.5000000 )
                  (     0          1          0      )       ( -0.5000000 )
                  (     0          0         -1      )       (  0.5000000 )

 cart.    s( 3) = ( -1.0000000  0.0000000  0.0000000 )    f =(  0.5000000 )
                  (  0.0000000  1.0000000  0.0000000 )       ( -0.5000000 )
                  (  0.0000000  0.0000000 -1.0000000 )       (  0.3509351 )


      isym =  4     180 deg rotation - cart. axis [1,0,0]        

 cryst.   s( 4) = (     1          0          0      )    f =( -0.5000000 )
                  (     0         -1          0      )       (  0.5000000 )
                  (     0          0         -1      )       (  0.5000000 )

 cart.    s( 4) = (  1.0000000  0.0000000  0.0000000 )    f =( -0.5000000 )
                  (  0.0000000 -1.0000000  0.0000000 )       (  0.5000000 )
                  (  0.0000000  0.0000000 -1.0000000 )       (  0.3509351 )


      isym =  5     180 deg rotation - cart. axis [1,1,0]        

 cryst.   s( 5) = (     0          1          0      )
                  (     1          0          0      )
                  (     0          0         -1      )

 cart.    s( 5) = (  0.0000000  1.0000000  0.0000000 )
                  (  1.0000000  0.0000000  0.0000000 )
                  (  0.0000000  0.0000000 -1.0000000 )


      isym =  6     180 deg rotation - cart. axis [1,-1,0]       

 cryst.   s( 6) = (     0         -1          0      )
                  (    -1          0          0      )
                  (     0          0         -1      )

 cart.    s( 6) = (  0.0000000 -1.0000000  0.0000000 )
                  ( -1.0000000  0.0000000  0.0000000 )
                  (  0.0000000  0.0000000 -1.0000000 )


      isym =  7      90 deg rotation - cart. axis [0,0,-1]       

 cryst.   s( 7) = (     0         -1          0      )    f =( -0.5000000 )
                  (     1          0          0      )       (  0.5000000 )
                  (     0          0          1      )       ( -0.5000000 )

 cart.    s( 7) = (  0.0000000  1.0000000  0.0000000 )    f =( -0.5000000 )
                  ( -1.0000000  0.0000000  0.0000000 )       (  0.5000000 )
                  (  0.0000000  0.0000000  1.0000000 )       ( -0.3509351 )


      isym =  8      90 deg rotation - cart. axis [0,0,1]        

 cryst.   s( 8) = (     0          1          0      )    f =(  0.5000000 )
                  (    -1          0          0      )       ( -0.5000000 )
                  (     0          0          1      )       ( -0.5000000 )

 cart.    s( 8) = (  0.0000000 -1.0000000  0.0000000 )    f =(  0.5000000 )
                  (  1.0000000  0.0000000  0.0000000 )       ( -0.5000000 )
                  (  0.0000000  0.0000000  1.0000000 )       ( -0.3509351 )


      isym =  9     inversion                                    

 cryst.   s( 9) = (    -1          0          0      )
                  (     0         -1          0      )
                  (     0          0         -1      )

 cart.    s( 9) = ( -1.0000000  0.0000000  0.0000000 )
                  (  0.0000000 -1.0000000  0.0000000 )
                  (  0.0000000  0.0000000 -1.0000000 )


      isym = 10     inv. 180 deg rotation - cart. axis [0,0,1]   

 cryst.   s(10) = (     1          0          0      )
                  (     0          1          0      )
                  (     0          0         -1      )

 cart.    s(10) = (  1.0000000  0.0000000  0.0000000 )
                  (  0.0000000  1.0000000  0.0000000 )
                  (  0.0000000  0.0000000 -1.0000000 )


      isym = 11     inv. 180 deg rotation - cart. axis [0,1,0]   

 cryst.   s(11) = (     1          0          0      )    f =( -0.5000000 )
                  (     0         -1          0      )       (  0.5000000 )
                  (     0          0          1      )       ( -0.5000000 )

 cart.    s(11) = (  1.0000000  0.0000000  0.0000000 )    f =( -0.5000000 )
                  (  0.0000000 -1.0000000  0.0000000 )       (  0.5000000 )
                  (  0.0000000  0.0000000  1.0000000 )       ( -0.3509351 )


      isym = 12     inv. 180 deg rotation - cart. axis [1,0,0]   

 cryst.   s(12) = (    -1          0          0      )    f =(  0.5000000 )
                  (     0          1          0      )       ( -0.5000000 )
                  (     0          0          1      )       ( -0.5000000 )

 cart.    s(12) = ( -1.0000000  0.0000000  0.0000000 )    f =(  0.5000000 )
                  (  0.0000000  1.0000000  0.0000000 )       ( -0.5000000 )
                  (  0.0000000  0.0000000  1.0000000 )       ( -0.3509351 )


      isym = 13     inv. 180 deg rotation - cart. axis [1,1,0]   

 cryst.   s(13) = (     0         -1          0      )
                  (    -1          0          0      )
                  (     0          0          1      )

 cart.    s(13) = (  0.0000000 -1.0000000  0.0000000 )
                  ( -1.0000000  0.0000000  0.0000000 )
                  (  0.0000000  0.0000000  1.0000000 )


      isym = 14     inv. 180 deg rotation - cart. axis [1,-1,0]  

 cryst.   s(14) = (     0          1          0      )
                  (     1          0          0      )
                  (     0          0          1      )

 cart.    s(14) = (  0.0000000  1.0000000  0.0000000 )
                  (  1.0000000  0.0000000  0.0000000 )
                  (  0.0000000  0.0000000  1.0000000 )


      isym = 15     inv.  90 deg rotation - cart. axis [0,0,-1]  

 cryst.   s(15) = (     0          1          0      )    f =(  0.5000000 )
                  (    -1          0          0      )       ( -0.5000000 )
                  (     0          0         -1      )       (  0.5000000 )

 cart.    s(15) = (  0.0000000 -1.0000000  0.0000000 )    f =(  0.5000000 )
                  (  1.0000000  0.0000000  0.0000000 )       ( -0.5000000 )
                  (  0.0000000  0.0000000 -1.0000000 )       (  0.3509351 )


      isym = 16     inv.  90 deg rotation - cart. axis [0,0,1]   

 cryst.   s(16) = (     0         -1          0      )    f =( -0.5000000 )
                  (     1          0          0      )       (  0.5000000 )
                  (     0          0         -1      )       (  0.5000000 )

 cart.    s(16) = (  0.0000000  1.0000000  0.0000000 )    f =( -0.5000000 )
                  ( -1.0000000  0.0000000  0.0000000 )       (  0.5000000 )
                  (  0.0000000  0.0000000 -1.0000000 )       (  0.3509351 )


     double point group D_4h(4/mmm)
     there are 14 classes and  4 irreducible representations
     the character table:

       E     -E    2C4   -2C4   C2    2C2' 2C2'' i     -i    2S4   -2S4   s_h 
                               -C2   -2C2' -2C2'                         -s_h 
G_6+   2.00 -2.00  1.41 -1.41  0.00  0.00  0.00  2.00 -2.00  1.41 -1.41  0.00
G_7+   2.00 -2.00 -1.41  1.41  0.00  0.00  0.00  2.00 -2.00 -1.41  1.41  0.00
G_6-   2.00 -2.00  1.41 -1.41  0.00  0.00  0.00 -2.00  2.00 -1.41  1.41  0.00
G_7-   2.00 -2.00 -1.41  1.41  0.00  0.00  0.00 -2.00  2.00  1.41 -1.41  0.00

        2s_v  2s_d
       -2s_v -2s_d
G_6+   0.00  0.00
G_7+   0.00  0.00
G_6-   0.00  0.00
G_7-   0.00  0.00

     the symmetry operations in each class and the name of the first element:

     E             1
          identity                                               
     -E           -1
          identity E                                             
     2C4           7    8
           90 deg rotation - cart. axis [0,0,-1]                 
     -2C4         -7   -8
           90 deg rotation - cart. axis [0,0,-1] E               
      C2  -C2      2   -2
          180 deg rotation - cart. axis [0,0,1]                  
      2C2'-2C2'    3   -3    4   -4
          180 deg rotation - cart. axis [0,1,0]                  
     2C2''-2C2'    5   -5   -6    6
          180 deg rotation - cart. axis [1,1,0]                  
     i             9
          inversion                                              
     -i           -9
          inversion E                                            
     2S4          15   16
          inv.  90 deg rotation - cart. axis [0,0,-1]            
     -2S4        -15  -16
          inv.  90 deg rotation - cart. axis [0,0,-1] E          
      s_h -s_h    10  -10
          inv. 180 deg rotation - cart. axis [0,0,1]             
      2s_v-2s_v   11  -11   12  -12
          inv. 180 deg rotation - cart. axis [0,1,0]             
      2s_d-2s_d   13  -13  -14   14
          inv. 180 deg rotation - cart. axis [1,1,0]             

   Cartesian axes

     site n.     atom                  positions (alat units)
         1           Ir  tau(   1) = (   0.0000000   0.0000000   0.0000000  )
         2           Ir  tau(   2) = (   0.5000000   0.5000000   0.3509351  )
         3           O   tau(   3) = (   0.1916000   0.8084000   0.3509351  )
         4           O   tau(   4) = (   0.3084000   0.3084000   0.0000000  )
         5           O   tau(   5) = (   0.6916000   0.6916000   0.0000000  )
         6           O   tau(   6) = (   0.8084000   0.1916000   0.3509351  )

   Crystallographic axes

     site n.     atom                  positions (cryst. coord.)
         1           Ir  tau(   1) = (  0.0000000  0.0000000  0.0000000  )
         2           Ir  tau(   2) = (  0.5000000  0.5000000  0.5000000  )
         3           O   tau(   3) = (  0.1916000  0.8084000  0.5000000  )
         4           O   tau(   4) = (  0.3084000  0.3084000  0.0000000  )
         5           O   tau(   5) = (  0.6916000  0.6916000  0.0000000  )
         6           O   tau(   6) = (  0.8084000  0.1916000  0.5000000  )

     number of k points=    30  Methfessel-Paxton smearing, width (Ry)=  0.0050
                       cart. coord. in units 2pi/alat
        k(    1) = (   0.0000000   0.0000000   0.0000000), wk =   0.0078125
        k(    2) = (   0.0000000   0.0000000  -0.7123824), wk =   0.0078125
        k(    3) = (   0.0000000   0.1250000   0.0000000), wk =   0.0312500
        k(    4) = (   0.0000000   0.1250000  -0.7123824), wk =   0.0312500
        k(    5) = (   0.0000000   0.2500000   0.0000000), wk =   0.0312500
        k(    6) = (   0.0000000   0.2500000  -0.7123824), wk =   0.0312500
        k(    7) = (   0.0000000   0.3750000   0.0000000), wk =   0.0312500
        k(    8) = (   0.0000000   0.3750000  -0.7123824), wk =   0.0312500
        k(    9) = (   0.0000000  -0.5000000   0.0000000), wk =   0.0156250
        k(   10) = (   0.0000000  -0.5000000  -0.7123824), wk =   0.0156250
        k(   11) = (   0.1250000   0.1250000   0.0000000), wk =   0.0312500
        k(   12) = (   0.1250000   0.1250000  -0.7123824), wk =   0.0312500
        k(   13) = (   0.1250000   0.2500000   0.0000000), wk =   0.0625000
        k(   14) = (   0.1250000   0.2500000  -0.7123824), wk =   0.0625000
        k(   15) = (   0.1250000   0.3750000   0.0000000), wk =   0.0625000
        k(   16) = (   0.1250000   0.3750000  -0.7123824), wk =   0.0625000
        k(   17) = (   0.1250000  -0.5000000   0.0000000), wk =   0.0312500
        k(   18) = (   0.1250000  -0.5000000  -0.7123824), wk =   0.0312500
        k(   19) = (   0.2500000   0.2500000   0.0000000), wk =   0.0312500
        k(   20) = (   0.2500000   0.2500000  -0.7123824), wk =   0.0312500
        k(   21) = (   0.2500000   0.3750000   0.0000000), wk =   0.0625000
        k(   22) = (   0.2500000   0.3750000  -0.7123824), wk =   0.0625000
        k(   23) = (   0.2500000  -0.5000000   0.0000000), wk =   0.0312500
        k(   24) = (   0.2500000  -0.5000000  -0.7123824), wk =   0.0312500
        k(   25) = (   0.3750000   0.3750000   0.0000000), wk =   0.0312500
        k(   26) = (   0.3750000   0.3750000  -0.7123824), wk =   0.0312500
        k(   27) = (   0.3750000  -0.5000000   0.0000000), wk =   0.0312500
        k(   28) = (   0.3750000  -0.5000000  -0.7123824), wk =   0.0312500
        k(   29) = (  -0.5000000  -0.5000000   0.0000000), wk =   0.0078125
        k(   30) = (  -0.5000000  -0.5000000  -0.7123824), wk =   0.0078125

                       cryst. coord.
        k(    1) = (   0.0000000   0.0000000   0.0000000), wk =   0.0078125
        k(    2) = (   0.0000000   0.0000000  -0.5000000), wk =   0.0078125
        k(    3) = (   0.0000000   0.1250000   0.0000000), wk =   0.0312500
        k(    4) = (   0.0000000   0.1250000  -0.5000000), wk =   0.0312500
        k(    5) = (   0.0000000   0.2500000   0.0000000), wk =   0.0312500
        k(    6) = (   0.0000000   0.2500000  -0.5000000), wk =   0.0312500
        k(    7) = (   0.0000000   0.3750000   0.0000000), wk =   0.0312500
        k(    8) = (   0.0000000   0.3750000  -0.5000000), wk =   0.0312500
        k(    9) = (   0.0000000  -0.5000000   0.0000000), wk =   0.0156250
        k(   10) = (   0.0000000  -0.5000000  -0.5000000), wk =   0.0156250
        k(   11) = (   0.1250000   0.1250000   0.0000000), wk =   0.0312500
        k(   12) = (   0.1250000   0.1250000  -0.5000000), wk =   0.0312500
        k(   13) = (   0.1250000   0.2500000   0.0000000), wk =   0.0625000
        k(   14) = (   0.1250000   0.2500000  -0.5000000), wk =   0.0625000
        k(   15) = (   0.1250000   0.3750000   0.0000000), wk =   0.0625000
        k(   16) = (   0.1250000   0.3750000  -0.5000000), wk =   0.0625000
        k(   17) = (   0.1250000  -0.5000000   0.0000000), wk =   0.0312500
        k(   18) = (   0.1250000  -0.5000000  -0.5000000), wk =   0.0312500
        k(   19) = (   0.2500000   0.2500000   0.0000000), wk =   0.0312500
        k(   20) = (   0.2500000   0.2500000  -0.5000000), wk =   0.0312500
        k(   21) = (   0.2500000   0.3750000   0.0000000), wk =   0.0625000
        k(   22) = (   0.2500000   0.3750000  -0.5000000), wk =   0.0625000
        k(   23) = (   0.2500000  -0.5000000   0.0000000), wk =   0.0312500
        k(   24) = (   0.2500000  -0.5000000  -0.5000000), wk =   0.0312500
        k(   25) = (   0.3750000   0.3750000   0.0000000), wk =   0.0312500
        k(   26) = (   0.3750000   0.3750000  -0.5000000), wk =   0.0312500
        k(   27) = (   0.3750000  -0.5000000   0.0000000), wk =   0.0312500
        k(   28) = (   0.3750000  -0.5000000  -0.5000000), wk =   0.0312500
        k(   29) = (  -0.5000000  -0.5000000   0.0000000), wk =   0.0078125
        k(   30) = (  -0.5000000  -0.5000000  -0.5000000), wk =   0.0078125

     Dense  grid:    42999 G-vectors     FFT dimensions: (  50,  50,  36)

     Dynamical RAM for                 wfc:       0.36 MB

     Dynamical RAM for     wfc (w. buffer):      11.06 MB

     Dynamical RAM for           str. fact:       0.04 MB

     Dynamical RAM for           local pot:       0.00 MB

     Dynamical RAM for          nlocal pot:       0.46 MB

     Dynamical RAM for                qrad:      20.10 MB

     Dynamical RAM for          rho,v,vnew:       0.70 MB

     Dynamical RAM for               rhoin:       0.23 MB

     Dynamical RAM for            rho*nmix:       1.31 MB

     Dynamical RAM for           G-vectors:       0.09 MB

     Dynamical RAM for          h,s,v(r/c):       0.04 MB

     Dynamical RAM for          <psi|beta>:       0.38 MB

     Dynamical RAM for                 psi:       0.71 MB

     Dynamical RAM for                hpsi:       0.71 MB

     Dynamical RAM for      wfcinit/wfcrot:       0.67 MB

     Estimated static dynamical RAM per process >      33.05 MB

     Estimated max dynamical RAM per process >      36.21 MB

     Estimated total dynamical RAM >       1.13 GB

     Initial potential from superposition of free atoms

     starting charge      57.9997, renormalised to      58.0000
     Starting wfcs are   72 randomized atomic wfcs

     total cpu time spent up to now is        1.7 secs

     Self-consistent Calculation

     iteration #  1     ecut=    80.00 Ry     beta= 0.70
     Davidson diagonalization with overlap

---- Real-time Memory Report at c_bands before calling an iterative solver
            84 MiB given to the printing process from OS
             0 MiB allocation reported by mallinfo(arena+hblkhd)
        229763 MiB available memory on the node where the printing process lives
------------------
     ethr =  1.00E-02,  avg # of iterations =  2.7

     total cpu time spent up to now is        6.9 secs

     total energy              =    -552.47358414 Ry
     estimated scf accuracy    <       1.17773383 Ry

     iteration #  2     ecut=    80.00 Ry     beta= 0.70
     Davidson diagonalization with overlap

---- Real-time Memory Report at c_bands before calling an iterative solver
            93 MiB given to the printing process from OS
             0 MiB allocation reported by mallinfo(arena+hblkhd)
        229591 MiB available memory on the node where the printing process lives
------------------
     ethr =  2.03E-03,  avg # of iterations =  2.2

     total cpu time spent up to now is       12.5 secs

     total energy              =    -552.31550625 Ry
     estimated scf accuracy    <       4.16649858 Ry

     iteration #  3     ecut=    80.00 Ry     beta= 0.70
     Davidson diagonalization with overlap

---- Real-time Memory Report at c_bands before calling an iterative solver
            94 MiB given to the printing process from OS
             0 MiB allocation reported by mallinfo(arena+hblkhd)
        229554 MiB available memory on the node where the printing process lives
------------------
     ethr =  2.03E-03,  avg # of iterations =  2.0

     total cpu time spent up to now is       17.8 secs

     total energy              =    -553.09932413 Ry
     estimated scf accuracy    <       0.03824568 Ry

     iteration #  4     ecut=    80.00 Ry     beta= 0.70
     Davidson diagonalization with overlap

---- Real-time Memory Report at c_bands before calling an iterative solver
            95 MiB given to the printing process from OS
             0 MiB allocation reported by mallinfo(arena+hblkhd)
        229539 MiB available memory on the node where the printing process lives
------------------
     ethr =  6.59E-05,  avg # of iterations =  3.6

     total cpu time spent up to now is       23.2 secs

     total energy              =    -553.10226034 Ry
     estimated scf accuracy    <       0.00649041 Ry

     iteration #  5     ecut=    80.00 Ry     beta= 0.70
     Davidson diagonalization with overlap

---- Real-time Memory Report at c_bands before calling an iterative solver
            96 MiB given to the printing process from OS
             0 MiB allocation reported by mallinfo(arena+hblkhd)
        229535 MiB available memory on the node where the printing process lives
------------------
     ethr =  1.12E-05,  avg # of iterations =  3.3

     total cpu time spent up to now is       28.2 secs

     total energy              =    -553.10344546 Ry
     estimated scf accuracy    <       0.00025976 Ry

     iteration #  6     ecut=    80.00 Ry     beta= 0.70
     Davidson diagonalization with overlap

---- Real-time Memory Report at c_bands before calling an iterative solver
           104 MiB given to the printing process from OS
             0 MiB allocation reported by mallinfo(arena+hblkhd)
        229514 MiB available memory on the node where the printing process lives
------------------
     c_bands:  2 eigenvalues not converged
     ethr =  4.48E-07,  avg # of iterations =  6.1

     total cpu time spent up to now is       33.9 secs

     total energy              =    -553.10348106 Ry
     estimated scf accuracy    <       0.00001014 Ry

     iteration #  7     ecut=    80.00 Ry     beta= 0.70
     Davidson diagonalization with overlap

---- Real-time Memory Report at c_bands before calling an iterative solver
           105 MiB given to the printing process from OS
             0 MiB allocation reported by mallinfo(arena+hblkhd)
        229509 MiB available memory on the node where the printing process lives
------------------
     ethr =  1.75E-08,  avg # of iterations =  2.0

     total cpu time spent up to now is       39.3 secs

     total energy              =    -553.10348370 Ry
     estimated scf accuracy    <       0.00000018 Ry

     iteration #  8     ecut=    80.00 Ry     beta= 0.70
     Davidson diagonalization with overlap

---- Real-time Memory Report at c_bands before calling an iterative solver
           108 MiB given to the printing process from OS
             0 MiB allocation reported by mallinfo(arena+hblkhd)
        229441 MiB available memory on the node where the printing process lives
------------------
     ethr =  3.13E-10,  avg # of iterations =  2.3

     total cpu time spent up to now is       44.6 secs

     total energy              =    -553.10348374 Ry
     estimated scf accuracy    <          6.3E-09 Ry

     iteration #  9     ecut=    80.00 Ry     beta= 0.70
     Davidson diagonalization with overlap

---- Real-time Memory Report at c_bands before calling an iterative solver
           108 MiB given to the printing process from OS
             0 MiB allocation reported by mallinfo(arena+hblkhd)
        229434 MiB available memory on the node where the printing process lives
------------------
     ethr =  1.09E-11,  avg # of iterations =  2.4

     total cpu time spent up to now is       50.1 secs

     End of self-consistent calculation

          k = 0.0000 0.0000 0.0000 (  5409 PWs)   bands (ev):

   -79.4362 -79.4362 -79.4349 -79.4349 -46.2754 -46.2754 -46.2647 -46.2647
   -32.8151 -32.8151 -32.8112 -32.8112 -32.6630 -32.6630 -32.6420 -32.6420
    -7.1005  -7.1005  -5.9498  -5.9498  -5.0287  -5.0287  -4.8278  -4.8278
     4.2306   4.2306   4.4680   4.4680   6.0225   6.0225   6.1352   6.1352
     6.2440   6.2440   8.7845   8.7845   8.8996   8.8996   9.1586   9.1586
    10.3337  10.3337  10.9484  10.9484  10.9485  10.9485  10.9899  10.9899
    11.1904  11.1904  11.3735  11.3735  11.6128  11.6128  11.6319  11.6319
    12.0340  12.0340  14.6136  14.6136  15.0487  15.0487  17.6663  17.6663
    17.8828  17.8828  18.0235  18.0235  19.3903  19.3903

     occupation numbers 
     1.0000   1.0000   1.0000   1.0000   1.0000   1.0000   1.0000   1.0000
     1.0000   1.0000   1.0000   1.0000   1.0000   1.0000   1.0000   1.0000
     1.0000   1.0000   1.0000   1.0000   1.0000   1.0000   1.0000   1.0000
     1.0000   1.0000   1.0000   1.0000   1.0000   1.0000   1.0000   1.0000
     1.0000   1.0000   1.0000   1.0000   1.0000   1.0000   1.0000   1.0000
     1.0000   1.0000   1.0000   1.0000   1.0000   1.0000   1.0000   1.0000
     1.0000   1.0000   1.0000   1.0000   1.0000   1.0000   1.0000   1.0000
     1.0000   1.0000  -0.0000  -0.0000  -0.0000  -0.0000  -0.0000  -0.0000
    -0.0000  -0.0000  -0.0000  -0.0000  -0.0000  -0.0000

          k = 0.0000 0.0000-0.7124 (  5314 PWs)   bands (ev):

   -79.4332 -79.4332 -79.4332 -79.4332 -46.2813 -46.2813 -46.2813 -46.2813
   -32.8715 -32.8715 -32.8715 -32.8715 -32.6646 -32.6646 -32.6646 -32.6646
    -5.7610  -5.7610  -5.7610  -5.7610  -5.4276  -5.4276  -5.4276  -5.4276
     5.7036   5.7036   5.7036   5.7036   6.6868   6.6868   6.6868   6.6868
     7.0769   7.0769   7.0769   7.0769   8.1671   8.1671   8.1671   8.1671
     8.5333   8.5333   8.5333   8.5333   9.9425   9.9425   9.9425   9.9425
    11.8598  11.8598  11.8598  11.8598  13.0583  13.0583  13.0583  13.0583
    14.0801  14.0801  14.0801  14.0801  16.0489  16.0489  16.0489  16.0489
    16.5799  16.5799  16.5799  16.5799  22.9158  22.9158

     occupation numbers 
     1.0000   1.0000   1.0000   1.0000   1.0000   1.0000   1.0000   1.0000
     1.0000   1.0000   1.0000   1.0000   1.0000   1.0000   1.0000   1.0000
     1.0000   1.0000   1.0000   1.0000   1.0000   1.0000   1.0000   1.0000
     1.0000   1.0000   1.0000   1.0000   1.0000   1.0000   1.0000   1.0000
     1.0000   1.0000   1.0000   1.0000   1.0000   1.0000   1.0000   1.0000
     1.0000   1.0000   1.0000   1.0000   1.0000   1.0000   1.0000   1.0000
     1.0000   1.0000   1.0000   1.0000   1.0000   1.0000   1.0000   1.0000
    -0.0341  -0.0341  -0.0341  -0.0341  -0.0000  -0.0000  -0.0000  -0.0000
    -0.0000  -0.0000  -0.0000  -0.0000  -0.0000  -0.0000

          k = 0.0000 0.1250 0.0000 (  5381 PWs)   bands (ev):

   -79.4362 -79.4362 -79.4350 -79.4350 -46.2750 -46.2750 -46.2651 -46.2651
   -32.8146 -32.8146 -32.8109 -32.8109 -32.6627 -32.6627 -32.6432 -32.6432
    -7.0417  -7.0417  -5.9424  -5.9424  -5.0795  -5.0795  -4.8874  -4.8874
     4.3813   4.3813   4.5818   4.5818   6.0457   6.0457   6.1489   6.1489
     6.3410   6.3410   8.6726   8.6726   8.7056   8.7056   8.9457   8.9457
    10.0081  10.0081  10.4482  10.4482  10.7210  10.7210  11.3109  11.3109
    11.4134  11.4134  11.5184  11.5184  11.6915  11.6915  11.8089  11.8089
    12.2385  12.2385  14.8477  14.8477  14.9510  14.9510  17.6073  17.6073
    17.9397  17.9397  18.1540  18.1540  19.2497  19.2497

     occupation numbers 
     1.0000   1.0000   1.0000   1.0000   1.0000   1.0000   1.0000   1.0000
     1.0000   1.0000   1.0000   1.0000   1.0000   1.0000   1.0000   1.0000
     1.0000   1.0000   1.0000   1.0000   1.0000   1.0000   1.0000   1.0000
     1.0000   1.0000   1.0000   1.0000   1.0000   1.0000   1.0000   1.0000
     1.0000   1.0000   1.0000   1.0000   1.0000   1.0000   1.0000   1.0000
     1.0000   1.0000   1.0000   1.0000   1.0000   1.0000   1.0000   1.0000
     1.0000   1.0000   1.0000   1.0000   1.0000   1.0000   1.0000   1.0000
     1.0000   1.0000  -0.0000  -0.0000  -0.0000  -0.0000  -0.0000  -0.0000
    -0.0000  -0.0000  -0.0000  -0.0000  -0.0000  -0.0000

          k = 0.0000 0.1250-0.7124 (  5384 PWs)   bands (ev):

   -79.4332 -79.4332 -79.4332 -79.4332 -46.2817 -46.2817 -46.2810 -46.2810
   -32.8773 -32.8773 -32.8658 -32.8658 -32.6683 -32.6683 -32.6610 -32.6610
    -5.7845  -5.7845  -5.7686  -5.7686  -5.4486  -5.4486  -5.3703  -5.3703
     5.7009   5.7009   5.7397   5.7397   6.3446   6.3446   6.4245   6.4245
     7.3545   7.3545   7.3789   7.3789   8.0920   8.0920   8.2387   8.2387
     8.6889   8.6889   8.7345   8.7345   9.8242   9.8242   9.8591   9.8591
    11.8465  11.8465  11.8782  11.8782  12.7837  12.7837  12.9648  12.9648
    14.0034  14.0034  14.2503  14.2503  15.6596  15.6596  15.7669  15.7669
    16.9091  16.9091  17.1024  17.1024  22.9202  22.9527

     occupation numbers 
     1.0000   1.0000   1.0000   1.0000   1.0000   1.0000   1.0000   1.0000
     1.0000   1.0000   1.0000   1.0000   1.0000   1.0000   1.0000   1.0000
     1.0000   1.0000   1.0000   1.0000   1.0000   1.0000   1.0000   1.0000
     1.0000   1.0000   1.0000   1.0000   1.0000   1.0000   1.0000   1.0000
     1.0000   1.0000   1.0000   1.0000   1.0000   1.0000   1.0000   1.0000
     1.0000   1.0000   1.0000   1.0000   1.0000   1.0000   1.0000   1.0000
     1.0000   1.0000   1.0000   1.0000   1.0000   1.0000   1.0000   1.0000
     0.4939   0.4939  -0.0000  -0.0000  -0.0000  -0.0000  -0.0000  -0.0000
    -0.0000  -0.0000  -0.0000  -0.0000  -0.0000  -0.0000

          k = 0.0000 0.2500 0.0000 (  5376 PWs)   bands (ev):

   -79.4360 -79.4360 -79.4351 -79.4351 -46.2738 -46.2738 -46.2663 -46.2663
   -32.8131 -32.8131 -32.8104 -32.8104 -32.6616 -32.6616 -32.6467 -32.6467
    -6.8718  -6.8718  -5.9456  -5.9456  -5.2160  -5.2160  -5.0218  -5.0218
     4.7857   4.7857   4.9029   4.9029   6.1019   6.1019   6.1828   6.1828
     6.6337   6.6337   8.1287   8.1287   8.3079   8.3079   8.6681   8.6681
     9.4966   9.4966   9.6164   9.6164  10.5773  10.5773  11.3319  11.3319
    11.6798  11.6798  11.7845  11.7845  12.0283  12.0283  12.1677  12.1677
    12.6226  12.6226  14.5928  14.5928  15.5481  15.5481  17.4487  17.4487
    17.7294  17.7294  18.8013  18.8013  18.9106  18.9106

     occupation numbers 
     1.0000   1.0000   1.0000   1.0000   1.0000   1.0000   1.0000   1.0000
     1.0000   1.0000   1.0000   1.0000   1.0000   1.0000   1.0000   1.0000
     1.0000   1.0000   1.0000   1.0000   1.0000   1.0000   1.0000   1.0000
     1.0000   1.0000   1.0000   1.0000   1.0000   1.0000   1.0000   1.0000
     1.0000   1.0000   1.0000   1.0000   1.0000   1.0000   1.0000   1.0000
     1.0000   1.0000   1.0000   1.0000   1.0000   1.0000   1.0000   1.0000
     1.0000   1.0000   1.0000   1.0000   1.0000   1.0000   1.0000   1.0000
     1.0000   1.0000  -0.0000  -0.0000  -0.0000  -0.0000  -0.0000  -0.0000
    -0.0000  -0.0000  -0.0000  -0.0000  -0.0000  -0.0000

          k = 0.0000 0.2500-0.7124 (  5356 PWs)   bands (ev):

   -79.4332 -79.4332 -79.4332 -79.4332 -46.2820 -46.2820 -46.2806 -46.2806
   -32.8823 -32.8823 -32.8610 -32.8610 -32.6714 -32.6714 -32.6578 -32.6578
    -5.8169  -5.8169  -5.8036  -5.8036  -5.4331  -5.4331  -5.3046  -5.3046
     5.6450   5.6450   5.7327   5.7327   6.0698   6.0698   6.1855   6.1855
     7.5747   7.5747   7.7194   7.7194   8.0828   8.0828   8.3044   8.3044
     9.1386   9.1386   9.1967   9.1967   9.6119   9.6119   9.6395   9.6395
    11.8266  11.8266  11.8489  11.8489  12.2689  12.2689  12.5783  12.5783
    14.0467  14.0467  14.3855  14.3855  15.2926  15.2926  15.3610  15.3610
    17.5149  17.5149  17.7154  17.7154  22.9666  22.9668

     occupation numbers 
     1.0000   1.0000   1.0000   1.0000   1.0000   1.0000   1.0000   1.0000
     1.0000   1.0000   1.0000   1.0000   1.0000   1.0000   1.0000   1.0000
     1.0000   1.0000   1.0000   1.0000   1.0000   1.0000   1.0000   1.0000
     1.0000   1.0000   1.0000   1.0000   1.0000   1.0000   1.0000   1.0000
     1.0000   1.0000   1.0000   1.0000   1.0000   1.0000   1.0000   1.0000
     1.0000   1.0000   1.0000   1.0000   1.0000   1.0000   1.0000   1.0000
     1.0000   1.0000   1.0000   1.0000   1.0000   1.0000   1.0000   1.0000
     0.0615   0.0615  -0.0000  -0.0000  -0.0000  -0.0000  -0.0000  -0.0000
    -0.0000  -0.0000  -0.0000  -0.0000  -0.0000  -0.0000

          k = 0.0000 0.3750 0.0000 (  5370 PWs)   bands (ev):

   -79.4358 -79.4358 -79.4353 -79.4353 -46.2721 -46.2721 -46.2680 -46.2680
   -32.8115 -32.8115 -32.8101 -32.8101 -32.6594 -32.6594 -32.6513 -32.6513
    -6.6127  -6.6127  -6.0515  -6.0515  -5.3237  -5.3237  -5.1679  -5.1679
     5.2886   5.2886   5.3518   5.3518   6.1726   6.1726   6.2176   6.2176
     7.0883   7.0883   7.5684   7.5684   7.6542   7.6542   8.6045   8.6045
     8.7151   8.7151   9.0695   9.0695  10.6158  10.6158  11.0617  11.0617
    11.9673  11.9673  12.0681  12.0681  12.2836  12.2836  12.4416  12.4416
    13.0929  13.0929  14.1348  14.1348  16.4167  16.4167  17.2977  17.2977
    17.4946  17.4946  18.1962  18.1962  19.8123  19.8123

     occupation numbers 
     1.0000   1.0000   1.0000   1.0000   1.0000   1.0000   1.0000   1.0000
     1.0000   1.0000   1.0000   1.0000   1.0000   1.0000   1.0000   1.0000
     1.0000   1.0000   1.0000   1.0000   1.0000   1.0000   1.0000   1.0000
     1.0000   1.0000   1.0000   1.0000   1.0000   1.0000   1.0000   1.0000
     1.0000   1.0000   1.0000   1.0000   1.0000   1.0000   1.0000   1.0000
     1.0000   1.0000   1.0000   1.0000   1.0000   1.0000   1.0000   1.0000
     1.0000   1.0000   1.0000   1.0000   1.0000   1.0000   1.0000   1.0000
     1.0000   1.0000  -0.0097  -0.0097  -0.0000  -0.0000  -0.0000  -0.0000
    -0.0000  -0.0000  -0.0000  -0.0000  -0.0000  -0.0000

          k = 0.0000 0.3750-0.7124 (  5360 PWs)   bands (ev):

   -79.4332 -79.4332 -79.4332 -79.4332 -46.2823 -46.2823 -46.2804 -46.2804
   -32.8857 -32.8857 -32.8579 -32.8579 -32.6735 -32.6735 -32.6557 -32.6557
    -5.8417  -5.8417  -5.8378  -5.8378  -5.4097  -5.4097  -5.2554  -5.2554
     5.5038   5.5038   5.5601   5.5601   6.1167   6.1167   6.1593   6.1593
     7.5527   7.5527   7.9602   7.9602   8.2771   8.2771   8.4171   8.4171
     9.1100   9.1100   9.1286   9.1286   9.9988   9.9988  10.0381  10.0381
    11.5019  11.5019  11.5911  11.5911  11.8684  11.8684  12.2699  12.2699
    14.1027  14.1027  14.4527  14.4527  15.0604  15.0604  15.1100  15.1100
    18.0007  18.0007  18.1822  18.1822  23.0595  23.0605

     occupation numbers 
     1.0000   1.0000   1.0000   1.0000   1.0000   1.0000   1.0000   1.0000
     1.0000   1.0000   1.0000   1.0000   1.0000   1.0000   1.0000   1.0000
     1.0000   1.0000   1.0000   1.0000   1.0000   1.0000   1.0000   1.0000
     1.0000   1.0000   1.0000   1.0000   1.0000   1.0000   1.0000   1.0000
     1.0000   1.0000   1.0000   1.0000   1.0000   1.0000   1.0000   1.0000
     1.0000   1.0000   1.0000   1.0000   1.0000   1.0000   1.0000   1.0000
     1.0000   1.0000   1.0000   1.0000   1.0000   1.0000   1.0000   1.0000
    -0.0291  -0.0291  -0.0000  -0.0000  -0.0000  -0.0000  -0.0000  -0.0000
    -0.0000  -0.0000  -0.0000  -0.0000  -0.0000  -0.0000

          k = 0.0000-0.5000 0.0000 (  5380 PWs)   bands (ev):

   -79.4356 -79.4356 -79.4356 -79.4356 -46.2701 -46.2701 -46.2701 -46.2701
   -32.8104 -32.8104 -32.8104 -32.8104 -32.6558 -32.6558 -32.6558 -32.6558
    -6.3093  -6.3093  -6.3093  -6.3093  -5.2890  -5.2890  -5.2890  -5.2890
     5.5924   5.5924   5.5924   5.5924   6.2293   6.2293   6.2293   6.2293
     7.2153   7.2153   7.2153   7.2153   7.8705   7.8705   7.8705   7.8705
     8.7603   8.7603   8.7603   8.7603  10.7972  10.7972  10.7972  10.7972
    12.1148  12.1148  12.1148  12.1148  12.4678  12.4678  12.4678  12.4678
    13.6167  13.6167  13.6167  13.6167  17.1834  17.1834  17.1834  17.1834
    17.4810  17.4810  17.4810  17.4810  20.7565  20.7565

     occupation numbers 
     1.0000   1.0000   1.0000   1.0000   1.0000   1.0000   1.0000   1.0000
     1.0000   1.0000   1.0000   1.0000   1.0000   1.0000   1.0000   1.0000
     1.0000   1.0000   1.0000   1.0000   1.0000   1.0000   1.0000   1.0000
     1.0000   1.0000   1.0000   1.0000   1.0000   1.0000   1.0000   1.0000
     1.0000   1.0000   1.0000   1.0000   1.0000   1.0000   1.0000   1.0000
     1.0000   1.0000   1.0000   1.0000   1.0000   1.0000   1.0000   1.0000
     1.0000   1.0000   1.0000   1.0000   1.0000   1.0000   1.0000   1.0000
     1.0000   1.0000   1.0000   1.0000  -0.0000  -0.0000  -0.0000  -0.0000
    -0.0000  -0.0000  -0.0000  -0.0000  -0.0000  -0.0000

          k = 0.0000-0.5000-0.7124 (  5360 PWs)   bands (ev):

   -79.4332 -79.4332 -79.4332 -79.4332 -46.2823 -46.2823 -46.2804 -46.2804
   -32.8869 -32.8869 -32.8569 -32.8569 -32.6742 -32.6742 -32.6550 -32.6550
    -5.8512  -5.8512  -5.8507  -5.8507  -5.3996  -5.3996  -5.2373  -5.2373
     5.4364   5.4364   5.4793   5.4793   6.1730   6.1730   6.1749   6.1749
     7.5040   7.5040   8.0420   8.0420   8.4592   8.4592   8.6085   8.6085
     8.8279   8.8279   8.9218   8.9218  10.5854  10.5854  10.5971  10.5971
    11.0125  11.0125  11.0236  11.0236  11.8668  11.8668  12.2003  12.2003
    14.1246  14.1246  14.4680  14.4680  14.9811  14.9811  15.0301  15.0301
    18.1888  18.1888  18.3588  18.3588  23.1293  23.1293

     occupation numbers 
     1.0000   1.0000   1.0000   1.0000   1.0000   1.0000   1.0000   1.0000
     1.0000   1.0000   1.0000   1.0000   1.0000   1.0000   1.0000   1.0000
     1.0000   1.0000   1.0000   1.0000   1.0000   1.0000   1.0000   1.0000
     1.0000   1.0000   1.0000   1.0000   1.0000   1.0000   1.0000   1.0000
     1.0000   1.0000   1.0000   1.0000   1.0000   1.0000   1.0000   1.0000
     1.0000   1.0000   1.0000   1.0000   1.0000   1.0000   1.0000   1.0000
     1.0000   1.0000   1.0000   1.0000   1.0000   1.0000   1.0000   1.0000
    -0.0149  -0.0149  -0.0000  -0.0000  -0.0000  -0.0000  -0.0000  -0.0000
    -0.0000  -0.0000  -0.0000  -0.0000  -0.0000  -0.0000

          k = 0.1250 0.1250 0.0000 (  5367 PWs)   bands (ev):

   -79.4361 -79.4361 -79.4350 -79.4350 -46.2746 -46.2746 -46.2655 -46.2655
   -32.8142 -32.8142 -32.8107 -32.8107 -32.6624 -32.6624 -32.6443 -32.6443
    -6.9887  -6.9887  -5.9387  -5.9387  -5.1464  -5.1464  -4.9098  -4.9098
     4.3391   4.3391   4.8600   4.8600   6.0486   6.0486   6.1714   6.1714
     6.4367   6.4367   8.2158   8.2158   8.6790   8.6790   9.0057   9.0057
     9.9161   9.9161  10.3618  10.3618  10.5120  10.5120  11.1201  11.1201
    11.4598  11.4598  11.5667  11.5667  11.8750  11.8750  11.9949  11.9949
    12.4270  12.4270  14.8356  14.8356  15.0178  15.0178  17.5183  17.5183
    17.9160  17.9160  18.4432  18.4432  19.1039  19.1039

     occupation numbers 
     1.0000   1.0000   1.0000   1.0000   1.0000   1.0000   1.0000   1.0000
     1.0000   1.0000   1.0000   1.0000   1.0000   1.0000   1.0000   1.0000
     1.0000   1.0000   1.0000   1.0000   1.0000   1.0000   1.0000   1.0000
     1.0000   1.0000   1.0000   1.0000   1.0000   1.0000   1.0000   1.0000
     1.0000   1.0000   1.0000   1.0000   1.0000   1.0000   1.0000   1.0000
     1.0000   1.0000   1.0000   1.0000   1.0000   1.0000   1.0000   1.0000
     1.0000   1.0000   1.0000   1.0000   1.0000   1.0000   1.0000   1.0000
     1.0000   1.0000  -0.0000  -0.0000  -0.0000  -0.0000  -0.0000  -0.0000
    -0.0000  -0.0000  -0.0000  -0.0000  -0.0000  -0.0000

          k = 0.1250 0.1250-0.7124 (  5372 PWs)   bands (ev):

   -79.4332 -79.4332 -79.4332 -79.4332 -46.2818 -46.2818 -46.2808 -46.2808
   -32.8791 -32.8791 -32.8641 -32.8641 -32.6695 -32.6695 -32.6598 -32.6598
    -5.8215  -5.8215  -5.7403  -5.7403  -5.4676  -5.4676  -5.3373  -5.3373
     5.6436   5.6436   5.8236   5.8236   6.1224   6.1224   6.5867   6.5867
     6.8321   6.8321   8.0090   8.0090   8.0931   8.0931   8.2533   8.2533
     8.6711   8.6711   9.0054   9.0054   9.5443   9.5443   9.9559   9.9559
    11.8431  11.8431  11.8766  11.8766  12.5398  12.5398  13.0262  13.0262
    13.8092  13.8092  14.3990  14.3990  15.2792  15.2792  16.0684  16.0684
    16.7044  16.7044  17.5217  17.5217  22.9033  22.9046

     occupation numbers 
     1.0000   1.0000   1.0000   1.0000   1.0000   1.0000   1.0000   1.0000
     1.0000   1.0000   1.0000   1.0000   1.0000   1.0000   1.0000   1.0000
     1.0000   1.0000   1.0000   1.0000   1.0000   1.0000   1.0000   1.0000
     1.0000   1.0000   1.0000   1.0000   1.0000   1.0000   1.0000   1.0000
     1.0000   1.0000   1.0000   1.0000   1.0000   1.0000   1.0000   1.0000
     1.0000   1.0000   1.0000   1.0000   1.0000   1.0000   1.0000   1.0000
     1.0000   1.0000   1.0000   1.0000   1.0000   1.0000   1.0000   1.0000
     1.0002   1.0002  -0.0000  -0.0000  -0.0000  -0.0000  -0.0000  -0.0000
    -0.0000  -0.0000  -0.0000  -0.0000  -0.0000  -0.0000

          k = 0.1250 0.2500 0.0000 (  5366 PWs)   bands (ev):

   -79.4360 -79.4360 -79.4351 -79.4351 -46.2736 -46.2736 -46.2666 -46.2666
   -32.8133 -32.8133 -32.8102 -32.8102 -32.6612 -32.6612 -32.6473 -32.6473
    -6.8361  -6.8361  -5.9580  -5.9580  -5.2757  -5.2757  -4.9913  -4.9913
     4.4823   4.4823   5.3365   5.3365   6.0703   6.0703   6.2136   6.2136
     6.7205   6.7205   7.5758   7.5758   8.5837   8.5837   8.7544   8.7544
     9.5928   9.5928   9.7803   9.7803  10.3197  10.3197  11.2425  11.2425
    11.3974  11.3974  11.7561  11.7561  12.0987  12.0987  12.3365  12.3365
    12.7775  12.7775  14.5581  14.5581  15.5136  15.5136  17.3616  17.3616
    17.7972  17.7972  18.6776  18.6776  19.1711  19.1711

     occupation numbers 
     1.0000   1.0000   1.0000   1.0000   1.0000   1.0000   1.0000   1.0000
     1.0000   1.0000   1.0000   1.0000   1.0000   1.0000   1.0000   1.0000
     1.0000   1.0000   1.0000   1.0000   1.0000   1.0000   1.0000   1.0000
     1.0000   1.0000   1.0000   1.0000   1.0000   1.0000   1.0000   1.0000
     1.0000   1.0000   1.0000   1.0000   1.0000   1.0000   1.0000   1.0000
     1.0000   1.0000   1.0000   1.0000   1.0000   1.0000   1.0000   1.0000
     1.0000   1.0000   1.0000   1.0000   1.0000   1.0000   1.0000   1.0000
     1.0000   1.0000  -0.0000  -0.0000  -0.0000  -0.0000  -0.0000  -0.0000
    -0.0000  -0.0000  -0.0000  -0.0000  -0.0000  -0.0000

          k = 0.1250 0.2500-0.7124 (  5370 PWs)   bands (ev):

   -79.4332 -79.4332 -79.4332 -79.4332 -46.2820 -46.2820 -46.2807 -46.2807
   -32.8823 -32.8823 -32.8611 -32.8611 -32.6715 -32.6715 -32.6578 -32.6578
    -5.8500  -5.8500  -5.7478  -5.7478  -5.4633  -5.4633  -5.2934  -5.2934
     5.5529   5.5529   5.8600   5.8600   6.0262   6.0262   6.2545   6.2545
     6.9957   6.9957   7.9844   7.9844   8.2602   8.2602   8.5121   8.5121
     9.0041   9.0041   9.2073   9.2073   9.4281   9.4281   9.9593   9.9593
    11.7757  11.7757  11.8506  11.8506  12.1764  12.1764  12.7302  12.7302
    13.7979  13.7979  14.4763  14.4763  15.0277  15.0277  15.7606  15.7606
    17.1764  17.1764  17.9583  17.9583  22.9301  22.9326

     occupation numbers 
     1.0000   1.0000   1.0000   1.0000   1.0000   1.0000   1.0000   1.0000
     1.0000   1.0000   1.0000   1.0000   1.0000   1.0000   1.0000   1.0000
     1.0000   1.0000   1.0000   1.0000   1.0000   1.0000   1.0000   1.0000
     1.0000   1.0000   1.0000   1.0000   1.0000   1.0000   1.0000   1.0000
     1.0000   1.0000   1.0000   1.0000   1.0000   1.0000   1.0000   1.0000
     1.0000   1.0000   1.0000   1.0000   1.0000   1.0000   1.0000   1.0000
     1.0000   1.0000   1.0000   1.0000   1.0000   1.0000   1.0000   1.0000
     1.0001   1.0001  -0.0000  -0.0000  -0.0000  -0.0000  -0.0000  -0.0000
    -0.0000  -0.0000  -0.0000  -0.0000  -0.0000  -0.0000

          k = 0.1250 0.3750 0.0000 (  5384 PWs)   bands (ev):

   -79.4358 -79.4358 -79.4353 -79.4353 -46.2720 -46.2720 -46.2682 -46.2682
   -32.8120 -32.8120 -32.8101 -32.8101 -32.6589 -32.6589 -32.6513 -32.6513
    -6.6044  -6.6044  -6.0860  -6.0860  -5.3272  -5.3272  -5.1201  -5.1201
     4.8399   4.8399   5.6047   5.6047   6.1188   6.1188   6.2332   6.2332
     7.1171   7.1171   7.3121   7.3121   8.1859   8.1859   8.6393   8.6393
     8.9306   8.9306   9.2030   9.2030  10.3913  10.3913  10.9486  10.9486
    11.7795  11.7795  12.0225  12.0225  12.1989  12.1989  12.4851  12.4851
    13.2062  13.2062  14.1571  14.1571  16.2695  16.2695  17.3011  17.3011
    17.5707  17.5707  18.0492  18.0492  20.0705  20.0705

     occupation numbers 
     1.0000   1.0000   1.0000   1.0000   1.0000   1.0000   1.0000   1.0000
     1.0000   1.0000   1.0000   1.0000   1.0000   1.0000   1.0000   1.0000
     1.0000   1.0000   1.0000   1.0000   1.0000   1.0000   1.0000   1.0000
     1.0000   1.0000   1.0000   1.0000   1.0000   1.0000   1.0000   1.0000
     1.0000   1.0000   1.0000   1.0000   1.0000   1.0000   1.0000   1.0000
     1.0000   1.0000   1.0000   1.0000   1.0000   1.0000   1.0000   1.0000
     1.0000   1.0000   1.0000   1.0000   1.0000   1.0000   1.0000   1.0000
     1.0000   1.0000  -0.0031  -0.0031  -0.0000  -0.0000  -0.0000  -0.0000
    -0.0000  -0.0000  -0.0000  -0.0000  -0.0000  -0.0000

          k = 0.1250 0.3750-0.7124 (  5362 PWs)   bands (ev):

   -79.4332 -79.4332 -79.4332 -79.4332 -46.2822 -46.2822 -46.2805 -46.2805
   -32.8848 -32.8848 -32.8588 -32.8588 -32.6730 -32.6730 -32.6563 -32.6563
    -5.8537  -5.8537  -5.7895  -5.7895  -5.4320  -5.4320  -5.2668  -5.2668
     5.4691   5.4691   5.6755   5.6755   6.0526   6.0526   6.1759   6.1759
     7.2756   7.2756   7.8898   7.8898   8.2758   8.2758   8.6042   8.6042
     8.8540   8.8540   9.4320   9.4320   9.8632   9.8632  10.3429  10.3429
    11.3771  11.3771  11.7789  11.7789  11.8941  11.8941  12.3185  12.3185
    13.9519  13.9519  14.4373  14.4373  14.9724  14.9724  15.3679  15.3679
    17.7506  17.7506  18.2101  18.2101  23.0337  23.0337

     occupation numbers 
     1.0000   1.0000   1.0000   1.0000   1.0000   1.0000   1.0000   1.0000
     1.0000   1.0000   1.0000   1.0000   1.0000   1.0000   1.0000   1.0000
     1.0000   1.0000   1.0000   1.0000   1.0000   1.0000   1.0000   1.0000
     1.0000   1.0000   1.0000   1.0000   1.0000   1.0000   1.0000   1.0000
     1.0000   1.0000   1.0000   1.0000   1.0000   1.0000   1.0000   1.0000
     1.0000   1.0000   1.0000   1.0000   1.0000   1.0000   1.0000   1.0000
     1.0000   1.0000   1.0000   1.0000   1.0000   1.0000   1.0000   1.0000
     0.9761   0.9761  -0.0000  -0.0000  -0.0000  -0.0000  -0.0000  -0.0000
    -0.0000  -0.0000  -0.0000  -0.0000  -0.0000  -0.0000

          k = 0.1250-0.5000 0.0000 (  5384 PWs)   bands (ev):

   -79.4356 -79.4356 -79.4356 -79.4356 -46.2701 -46.2701 -46.2701 -46.2701
   -32.8108 -32.8108 -32.8108 -32.8108 -32.6555 -32.6555 -32.6555 -32.6555
    -6.3317  -6.3317  -6.3317  -6.3317  -5.2528  -5.2528  -5.2528  -5.2528
     5.3124   5.3124   5.3124   5.3124   6.1809   6.1809   6.1809   6.1809
     7.4775   7.4775   7.4775   7.4775   8.0767   8.0767   8.0767   8.0767
     8.8653   8.8653   8.8653   8.8653  10.6330  10.6330  10.6330  10.6330
    12.0378  12.0378  12.0378  12.0378  12.3703  12.3703  12.3703  12.3703
    13.6889  13.6889  13.6889  13.6889  17.0651  17.0651  17.0651  17.0651
    17.5002  17.5002  17.5002  17.5002  20.9538  20.9538

     occupation numbers 
     1.0000   1.0000   1.0000   1.0000   1.0000   1.0000   1.0000   1.0000
     1.0000   1.0000   1.0000   1.0000   1.0000   1.0000   1.0000   1.0000
     1.0000   1.0000   1.0000   1.0000   1.0000   1.0000   1.0000   1.0000
     1.0000   1.0000   1.0000   1.0000   1.0000   1.0000   1.0000   1.0000
     1.0000   1.0000   1.0000   1.0000   1.0000   1.0000   1.0000   1.0000
     1.0000   1.0000   1.0000   1.0000   1.0000   1.0000   1.0000   1.0000
     1.0000   1.0000   1.0000   1.0000   1.0000   1.0000   1.0000   1.0000
     1.0000   1.0000   1.0000   1.0000  -0.0000  -0.0000  -0.0000  -0.0000
    -0.0000  -0.0000  -0.0000  -0.0000  -0.0000  -0.0000

          k = 0.1250-0.5000-0.7124 (  5364 PWs)   bands (ev):

   -79.4332 -79.4332 -79.4332 -79.4332 -46.2823 -46.2823 -46.2805 -46.2805
   -32.8857 -32.8857 -32.8580 -32.8580 -32.6735 -32.6735 -32.6558 -32.6558
    -5.8346  -5.8346  -5.8278  -5.8278  -5.4154  -5.4154  -5.2589  -5.2589
     5.4867   5.4867   5.5144   5.5144   6.1138   6.1138   6.1548   6.1548
     7.4770   7.4770   7.7989   7.7989   8.3470   8.3470   8.3474   8.3474
     9.1106   9.1106   9.1891   9.1891  10.5317  10.5317  10.5376  10.5376
    11.2219  11.2219  11.2330  11.2330  11.8784  11.8784  12.2196  12.2196
    14.0418  14.0418  14.3916  14.3916  15.0762  15.0762  15.1057  15.1057
    18.0636  18.0636  18.2184  18.2184  23.1512  23.1512

     occupation numbers 
     1.0000   1.0000   1.0000   1.0000   1.0000   1.0000   1.0000   1.0000
     1.0000   1.0000   1.0000   1.0000   1.0000   1.0000   1.0000   1.0000
     1.0000   1.0000   1.0000   1.0000   1.0000   1.0000   1.0000   1.0000
     1.0000   1.0000   1.0000   1.0000   1.0000   1.0000   1.0000   1.0000
     1.0000   1.0000   1.0000   1.0000   1.0000   1.0000   1.0000   1.0000
     1.0000   1.0000   1.0000   1.0000   1.0000   1.0000   1.0000   1.0000
     1.0000   1.0000   1.0000   1.0000   1.0000   1.0000   1.0000   1.0000
     0.0935   0.0935  -0.0000  -0.0000  -0.0000  -0.0000  -0.0000  -0.0000
    -0.0000  -0.0000  -0.0000  -0.0000  -0.0000  -0.0000

          k = 0.2500 0.2500 0.0000 (  5379 PWs)   bands (ev):

   -79.4359 -79.4359 -79.4352 -79.4352 -46.2728 -46.2728 -46.2674 -46.2674
   -32.8133 -32.8133 -32.8101 -32.8101 -32.6599 -32.6599 -32.6490 -32.6490
    -6.7332  -6.7332  -6.0269  -6.0269  -5.3288  -5.3288  -4.9880  -4.9880
     4.3573   4.3573   5.6163   5.6163   6.0420   6.0420   6.2344   6.2344
     6.9601   6.9601   7.2656   7.2656   8.6253   8.6253   8.8790   8.8790
     9.6581   9.6581   9.7936   9.7936  10.0412  10.0412  11.0260  11.0260
    11.1627  11.1627  11.6487  11.6487  12.1669  12.1669  12.4830  12.4830
    13.1084  13.1084  14.4228  14.4228  15.6190  15.6190  17.3096  17.3096
    17.7848  17.7848  18.2727  18.2727  19.8624  19.8624

     occupation numbers 
     1.0000   1.0000   1.0000   1.0000   1.0000   1.0000   1.0000   1.0000
     1.0000   1.0000   1.0000   1.0000   1.0000   1.0000   1.0000   1.0000
     1.0000   1.0000   1.0000   1.0000   1.0000   1.0000   1.0000   1.0000
     1.0000   1.0000   1.0000   1.0000   1.0000   1.0000   1.0000   1.0000
     1.0000   1.0000   1.0000   1.0000   1.0000   1.0000   1.0000   1.0000
     1.0000   1.0000   1.0000   1.0000   1.0000   1.0000   1.0000   1.0000
     1.0000   1.0000   1.0000   1.0000   1.0000   1.0000   1.0000   1.0000
     1.0000   1.0000  -0.0000  -0.0000  -0.0000  -0.0000  -0.0000  -0.0000
    -0.0000  -0.0000  -0.0000  -0.0000  -0.0000  -0.0000

          k = 0.2500 0.2500-0.7124 (  5372 PWs)   bands (ev):

   -79.4332 -79.4332 -79.4332 -79.4332 -46.2821 -46.2821 -46.2807 -46.2807
   -32.8824 -32.8824 -32.8611 -32.8611 -32.6716 -32.6716 -32.6579 -32.6579
    -5.8564  -5.8564  -5.6954  -5.6954  -5.5059  -5.5059  -5.2873  -5.2873
     5.4841   5.4841   5.8720   5.8720   6.1474   6.1474   6.3026   6.3026
     6.5288   6.5288   7.9946   7.9946   8.2870   8.2870   8.5889   8.5889
     9.0498   9.0498   9.3011   9.3011   9.6456   9.6456  10.2717  10.2717
    11.6029  11.6029  11.8588  11.8588  12.0874  12.0874  12.8714  12.8714
    13.4605  13.4605  14.4768  14.4768  14.9338  14.9338  16.0545  16.0545
    16.9394  16.9394  18.1161  18.1161  22.9393  22.9393

     occupation numbers 
     1.0000   1.0000   1.0000   1.0000   1.0000   1.0000   1.0000   1.0000
     1.0000   1.0000   1.0000   1.0000   1.0000   1.0000   1.0000   1.0000
     1.0000   1.0000   1.0000   1.0000   1.0000   1.0000   1.0000   1.0000
     1.0000   1.0000   1.0000   1.0000   1.0000   1.0000   1.0000   1.0000
     1.0000   1.0000   1.0000   1.0000   1.0000   1.0000   1.0000   1.0000
     1.0000   1.0000   1.0000   1.0000   1.0000   1.0000   1.0000   1.0000
     1.0000   1.0000   1.0000   1.0000   1.0000   1.0000   1.0000   1.0000
     1.0000   1.0000  -0.0000  -0.0000  -0.0000  -0.0000  -0.0000  -0.0000
    -0.0000  -0.0000  -0.0000  -0.0000  -0.0000  -0.0000

          k = 0.2500 0.3750 0.0000 (  5400 PWs)   bands (ev):

   -79.4357 -79.4357 -79.4354 -79.4354 -46.2716 -46.2716 -46.2687 -46.2687
   -32.8127 -32.8127 -32.8106 -32.8106 -32.6577 -32.6577 -32.6517 -32.6517
    -6.5749  -6.5749  -6.1815  -6.1815  -5.2827  -5.2827  -5.0550  -5.0550
     4.4854   4.4854   5.3150   5.3150   6.0490   6.0490   6.1725   6.1725
     7.3814   7.3814   7.6746   7.6746   8.5908   8.5908   8.7976   8.7976
     9.4058   9.4058   9.4806   9.4806   9.9371   9.9371  10.6838  10.6838
    11.4027  11.4027  11.7895  11.7895  12.0979  12.0979  12.3862  12.3862
    13.4783  13.4783  14.1761  14.1761  16.0457  16.0457  17.3400  17.3400
    17.4740  17.4740  17.9088  17.9088  20.6725  20.6727

     occupation numbers 
     1.0000   1.0000   1.0000   1.0000   1.0000   1.0000   1.0000   1.0000
     1.0000   1.0000   1.0000   1.0000   1.0000   1.0000   1.0000   1.0000
     1.0000   1.0000   1.0000   1.0000   1.0000   1.0000   1.0000   1.0000
     1.0000   1.0000   1.0000   1.0000   1.0000   1.0000   1.0000   1.0000
     1.0000   1.0000   1.0000   1.0000   1.0000   1.0000   1.0000   1.0000
     1.0000   1.0000   1.0000   1.0000   1.0000   1.0000   1.0000   1.0000
     1.0000   1.0000   1.0000   1.0000   1.0000   1.0000   1.0000   1.0000
     1.0000   1.0000  -0.0009  -0.0009  -0.0000  -0.0000  -0.0000  -0.0000
    -0.0000  -0.0000  -0.0000  -0.0000  -0.0000  -0.0000

          k = 0.2500 0.3750-0.7124 (  5360 PWs)   bands (ev):

   -79.4332 -79.4332 -79.4332 -79.4332 -46.2821 -46.2821 -46.2807 -46.2807
   -32.8824 -32.8824 -32.8611 -32.8611 -32.6717 -32.6717 -32.6580 -32.6580
    -5.8302  -5.8302  -5.7137  -5.7137  -5.4883  -5.4883  -5.3033  -5.3033
     5.4893   5.4893   5.8259   5.8259   6.0065   6.0065   6.1804   6.1804
     6.8045   6.8045   7.7959   7.7959   8.2129   8.2129   8.3090   8.3090
     9.2296   9.2296   9.6200   9.6200   9.9683   9.9683  10.6576  10.6576
    11.3845  11.3845  11.8665  11.8665  12.0108  12.0108  12.5233  12.5233
    13.5972  13.5972  14.3132  14.3132  15.0570  15.0570  15.7702  15.7702
    17.3044  17.3044  18.0693  18.0693  23.0374  23.0375

     occupation numbers 
     1.0000   1.0000   1.0000   1.0000   1.0000   1.0000   1.0000   1.0000
     1.0000   1.0000   1.0000   1.0000   1.0000   1.0000   1.0000   1.0000
     1.0000   1.0000   1.0000   1.0000   1.0000   1.0000   1.0000   1.0000
     1.0000   1.0000   1.0000   1.0000   1.0000   1.0000   1.0000   1.0000
     1.0000   1.0000   1.0000   1.0000   1.0000   1.0000   1.0000   1.0000
     1.0000   1.0000   1.0000   1.0000   1.0000   1.0000   1.0000   1.0000
     1.0000   1.0000   1.0000   1.0000   1.0000   1.0000   1.0000   1.0000
     1.0000   1.0000  -0.0000  -0.0000  -0.0000  -0.0000  -0.0000  -0.0000
    -0.0000  -0.0000  -0.0000  -0.0000  -0.0000  -0.0000

          k = 0.2500-0.5000 0.0000 (  5384 PWs)   bands (ev):

   -79.4356 -79.4356 -79.4356 -79.4356 -46.2701 -46.2701 -46.2701 -46.2701
   -32.8116 -32.8116 -32.8116 -32.8116 -32.6548 -32.6548 -32.6548 -32.6548
    -6.3807  -6.3807  -6.3807  -6.3807  -5.1701  -5.1701  -5.1701  -5.1701
     4.8373   4.8373   4.8373   4.8373   6.0983   6.0983   6.0983   6.0983
     7.8576   7.8576   7.8576   7.8576   8.6429   8.6429   8.6429   8.6429
     9.1438   9.1438   9.1438   9.1438  10.2632  10.2632  10.2632  10.2632
    11.7746  11.7746  11.7746  11.7746  12.1399  12.1399  12.1399  12.1399
    13.8476  13.8476  13.8476  13.8476  16.6953  16.6953  16.6953  16.6953
    17.6595  17.6595  17.6595  17.6595  21.4299  21.4299

     occupation numbers 
     1.0000   1.0000   1.0000   1.0000   1.0000   1.0000   1.0000   1.0000
     1.0000   1.0000   1.0000   1.0000   1.0000   1.0000   1.0000   1.0000
     1.0000   1.0000   1.0000   1.0000   1.0000   1.0000   1.0000   1.0000
     1.0000   1.0000   1.0000   1.0000   1.0000   1.0000   1.0000   1.0000
     1.0000   1.0000   1.0000   1.0000   1.0000   1.0000   1.0000   1.0000
     1.0000   1.0000   1.0000   1.0000   1.0000   1.0000   1.0000   1.0000
     1.0000   1.0000   1.0000   1.0000   1.0000   1.0000   1.0000   1.0000
     1.0029   1.0029   1.0029   1.0029  -0.0000  -0.0000  -0.0000  -0.0000
    -0.0000  -0.0000  -0.0000  -0.0000  -0.0000  -0.0000

          k = 0.2500-0.5000-0.7124 (  5356 PWs)   bands (ev):

   -79.4332 -79.4332 -79.4332 -79.4332 -46.2821 -46.2821 -46.2807 -46.2807
   -32.8824 -32.8824 -32.8612 -32.8612 -32.6717 -32.6717 -32.6581 -32.6581
    -5.7881  -5.7881  -5.7639  -5.7639  -5.4593  -5.4593  -5.3202  -5.3202
     5.5972   5.5972   5.6276   5.6276   5.9885   5.9885   6.1406   6.1406
     7.2851   7.2851   7.3062   7.3062   8.1674   8.1674   8.3022   8.3022
     9.4281   9.4281   9.4601   9.4601  10.5245  10.5245  10.5329  10.5329
    11.5890  11.5890  11.6678  11.6678  11.9155  11.9155  12.3009  12.3009
    13.8044  13.8044  14.1415  14.1415  15.3554  15.3554  15.3620  15.3620
    17.7210  17.7210  17.8356  17.8356  23.1693  23.1693

     occupation numbers 
     1.0000   1.0000   1.0000   1.0000   1.0000   1.0000   1.0000   1.0000
     1.0000   1.0000   1.0000   1.0000   1.0000   1.0000   1.0000   1.0000
     1.0000   1.0000   1.0000   1.0000   1.0000   1.0000   1.0000   1.0000
     1.0000   1.0000   1.0000   1.0000   1.0000   1.0000   1.0000   1.0000
     1.0000   1.0000   1.0000   1.0000   1.0000   1.0000   1.0000   1.0000
     1.0000   1.0000   1.0000   1.0000   1.0000   1.0000   1.0000   1.0000
     1.0000   1.0000   1.0000   1.0000   1.0000   1.0000   1.0000   1.0000
     1.0001   1.0001  -0.0071  -0.0071  -0.0000  -0.0000  -0.0000  -0.0000
    -0.0000  -0.0000  -0.0000  -0.0000  -0.0000  -0.0000

          k = 0.3750 0.3750 0.0000 (  5390 PWs)   bands (ev):

   -79.4356 -79.4356 -79.4355 -79.4355 -46.2709 -46.2709 -46.2693 -46.2693
   -32.8129 -32.8129 -32.8116 -32.8116 -32.6559 -32.6559 -32.6525 -32.6525
    -6.5160  -6.5160  -6.3061  -6.3061  -5.1879  -5.1879  -5.0407  -5.0407
     4.3576   4.3576   4.8365   4.8365   6.0136   6.0136   6.0896   6.0896
     7.8039   7.8039   8.2819   8.2819   8.7680   8.7680   9.0695   9.0695
     9.5567   9.5567   9.6166   9.6166   9.6606   9.6606  10.5240  10.5240
    11.1328  11.1328  11.5973  11.5973  11.8809  11.8809  12.1349  12.1349
    13.7607  13.7607  14.1243  14.1243  16.0434  16.0434  16.8434  16.8434
    17.6411  17.6411  17.9239  17.9239  21.3605  21.3605

     occupation numbers 
     1.0000   1.0000   1.0000   1.0000   1.0000   1.0000   1.0000   1.0000
     1.0000   1.0000   1.0000   1.0000   1.0000   1.0000   1.0000   1.0000
     1.0000   1.0000   1.0000   1.0000   1.0000   1.0000   1.0000   1.0000
     1.0000   1.0000   1.0000   1.0000   1.0000   1.0000   1.0000   1.0000
     1.0000   1.0000   1.0000   1.0000   1.0000   1.0000   1.0000   1.0000
     1.0000   1.0000   1.0000   1.0000   1.0000   1.0000   1.0000   1.0000
     1.0000   1.0000   1.0000   1.0000   1.0000   1.0000   1.0000   1.0000
     1.0000   1.0000  -0.0150  -0.0150  -0.0000  -0.0000  -0.0000  -0.0000
    -0.0000  -0.0000  -0.0000  -0.0000  -0.0000  -0.0000

          k = 0.3750 0.3750-0.7124 (  5386 PWs)   bands (ev):

   -79.4332 -79.4332 -79.4332 -79.4332 -46.2819 -46.2819 -46.2809 -46.2809
   -32.8793 -32.8793 -32.8642 -32.8642 -32.6699 -32.6699 -32.6602 -32.6602
    -5.7760  -5.7760  -5.6519  -5.6519  -5.5378  -5.5378  -5.3634  -5.3634
     5.5693   5.5693   5.8425   5.8425   5.9580   5.9580   6.3323   6.3323
     6.5163   6.5163   7.3801   7.3801   8.1604   8.1604   8.2814   8.2814
     9.4561   9.4561   9.6682   9.6682  10.2937  10.2937  10.7551  10.7551
    11.6333  11.6333  11.8920  11.8920  12.0932  12.0932  12.7172  12.7172
    13.3185  13.3185  14.0381  14.0381  15.3434  15.3434  16.0370  16.0370
    17.0114  17.0114  17.7389  17.7389  23.0509  23.0510

     occupation numbers 
     1.0000   1.0000   1.0000   1.0000   1.0000   1.0000   1.0000   1.0000
     1.0000   1.0000   1.0000   1.0000   1.0000   1.0000   1.0000   1.0000
     1.0000   1.0000   1.0000   1.0000   1.0000   1.0000   1.0000   1.0000
     1.0000   1.0000   1.0000   1.0000   1.0000   1.0000   1.0000   1.0000
     1.0000   1.0000   1.0000   1.0000   1.0000   1.0000   1.0000   1.0000
     1.0000   1.0000   1.0000   1.0000   1.0000   1.0000   1.0000   1.0000
     1.0000   1.0000   1.0000   1.0000   1.0000   1.0000   1.0000   1.0000
     1.0000   1.0000   0.1209   0.1209  -0.0000  -0.0000  -0.0000  -0.0000
    -0.0000  -0.0000  -0.0000  -0.0000  -0.0000  -0.0000

          k = 0.3750-0.5000 0.0000 (  5392 PWs)   bands (ev):

   -79.4356 -79.4356 -79.4356 -79.4356 -46.2701 -46.2701 -46.2701 -46.2701
   -32.8125 -32.8125 -32.8125 -32.8125 -32.6540 -32.6540 -32.6540 -32.6540
    -6.4243  -6.4243  -6.4243  -6.4243  -5.0921  -5.0921  -5.0921  -5.0921
     4.4838   4.4838   4.4838   4.4838   6.0287   6.0287   6.0287   6.0287
     8.2717   8.2717   8.2717   8.2717   9.0161   9.0161   9.0161   9.0161
     9.4628   9.4628   9.4628   9.4628  10.0960  10.0960  10.0960  10.0960
    11.3723  11.3723  11.3723  11.3723  11.8681  11.8681  11.8681  11.8681
    13.9813  13.9813  13.9813  13.9813  16.3394  16.3394  16.3394  16.3394
    17.8338  17.8338  17.8338  17.8338  21.9917  21.9917

     occupation numbers 
     1.0000   1.0000   1.0000   1.0000   1.0000   1.0000   1.0000   1.0000
     1.0000   1.0000   1.0000   1.0000   1.0000   1.0000   1.0000   1.0000
     1.0000   1.0000   1.0000   1.0000   1.0000   1.0000   1.0000   1.0000
     1.0000   1.0000   1.0000   1.0000   1.0000   1.0000   1.0000   1.0000
     1.0000   1.0000   1.0000   1.0000   1.0000   1.0000   1.0000   1.0000
     1.0000   1.0000   1.0000   1.0000   1.0000   1.0000   1.0000   1.0000
     1.0000   1.0000   1.0000   1.0000   1.0000   1.0000   1.0000   1.0000
     0.7548   0.7548   0.7548   0.7548  -0.0000  -0.0000  -0.0000  -0.0000
    -0.0000  -0.0000  -0.0000  -0.0000  -0.0000  -0.0000

          k = 0.3750-0.5000-0.7124 (  5372 PWs)   bands (ev):

   -79.4332 -79.4332 -79.4332 -79.4332 -46.2818 -46.2818 -46.2810 -46.2810
   -32.8775 -32.8775 -32.8660 -32.8660 -32.6688 -32.6688 -32.6614 -32.6614
    -5.7208  -5.7208  -5.6782  -5.6782  -5.5162  -5.5162  -5.4111  -5.4111
     5.6661   5.6661   5.7483   5.7483   5.9829   5.9829   6.2169   6.2169
     6.8323   6.8323   6.9379   6.9379   8.1761   8.1761   8.2715   8.2715
     9.5932   9.5932   9.5982   9.5982  10.6022  10.6022  10.6106  10.6106
    11.8404  11.8404  11.8934  11.8934  12.2113  12.2113  12.5176  12.5176
    13.4888  13.4888  13.7619  13.7619  15.7572  15.7572  15.7580  15.7580
    17.2651  17.2651  17.3275  17.3275  23.1109  23.1113

     occupation numbers 
     1.0000   1.0000   1.0000   1.0000   1.0000   1.0000   1.0000   1.0000
     1.0000   1.0000   1.0000   1.0000   1.0000   1.0000   1.0000   1.0000
     1.0000   1.0000   1.0000   1.0000   1.0000   1.0000   1.0000   1.0000
     1.0000   1.0000   1.0000   1.0000   1.0000   1.0000   1.0000   1.0000
     1.0000   1.0000   1.0000   1.0000   1.0000   1.0000   1.0000   1.0000
     1.0000   1.0000   1.0000   1.0000   1.0000   1.0000   1.0000   1.0000
     1.0000   1.0000   1.0000   1.0000   1.0000   1.0000   1.0000   1.0000
     1.0000   1.0000   1.0000   1.0000  -0.0000  -0.0000  -0.0000  -0.0000
    -0.0000  -0.0000  -0.0000  -0.0000  -0.0000  -0.0000

          k =-0.5000-0.5000 0.0000 (  5412 PWs)   bands (ev):

   -79.4356 -79.4356 -79.4356 -79.4356 -46.2701 -46.2701 -46.2701 -46.2701
   -32.8128 -32.8128 -32.8128 -32.8128 -32.6537 -32.6537 -32.6537 -32.6537
    -6.4411  -6.4411  -6.4411  -6.4411  -5.0609  -5.0609  -5.0609  -5.0609
     4.3566   4.3566   4.3566   4.3566   6.0021   6.0021   6.0021   6.0021
     8.7165   8.7165   8.7165   8.7165   8.7448   8.7448   8.7448   8.7448
     9.5942   9.5942   9.5942   9.5942  10.3212  10.3212  10.3212  10.3212
    11.0923  11.0923  11.0923  11.0923  11.7163  11.7163  11.7163  11.7163
    14.0279  14.0279  14.0279  14.0279  16.2008  16.2008  16.2008  16.2008
    17.9052  17.9052  17.9052  17.9052  22.7654  22.7658

     occupation numbers 
     1.0000   1.0000   1.0000   1.0000   1.0000   1.0000   1.0000   1.0000
     1.0000   1.0000   1.0000   1.0000   1.0000   1.0000   1.0000   1.0000
     1.0000   1.0000   1.0000   1.0000   1.0000   1.0000   1.0000   1.0000
     1.0000   1.0000   1.0000   1.0000   1.0000   1.0000   1.0000   1.0000
     1.0000   1.0000   1.0000   1.0000   1.0000   1.0000   1.0000   1.0000
     1.0000   1.0000   1.0000   1.0000   1.0000   1.0000   1.0000   1.0000
     1.0000   1.0000   1.0000   1.0000   1.0000   1.0000   1.0000   1.0000
     0.2111   0.2111   0.2111   0.2111  -0.0000  -0.0000  -0.0000  -0.0000
    -0.0000  -0.0000  -0.0000  -0.0000  -0.0000  -0.0000

          k =-0.5000-0.5000-0.7124 (  5384 PWs)   bands (ev):

   -79.4332 -79.4332 -79.4332 -79.4332 -46.2814 -46.2814 -46.2814 -46.2814
   -32.8717 -32.8717 -32.8717 -32.8717 -32.6652 -32.6652 -32.6652 -32.6652
    -5.6550  -5.6550  -5.6550  -5.6550  -5.5071  -5.5071  -5.5071  -5.5071
     5.7088   5.7088   5.7088   5.7088   6.2254   6.2254   6.2254   6.2254
     6.6494   6.6494   6.6494   6.6494   8.2285   8.2285   8.2285   8.2285
     9.6363   9.6363   9.6363   9.6363  10.6552  10.6552  10.6552  10.6552
    11.9045  11.9045  11.9045  11.9045  12.5910  12.5910  12.5910  12.5910
    13.4107  13.4107  13.4107  13.4107  16.0291  16.0291  16.0291  16.0291
    16.9920  16.9920  16.9920  16.9920  23.0707  23.0707

     occupation numbers 
     1.0000   1.0000   1.0000   1.0000   1.0000   1.0000   1.0000   1.0000
     1.0000   1.0000   1.0000   1.0000   1.0000   1.0000   1.0000   1.0000
     1.0000   1.0000   1.0000   1.0000   1.0000   1.0000   1.0000   1.0000
     1.0000   1.0000   1.0000   1.0000   1.0000   1.0000   1.0000   1.0000
     1.0000   1.0000   1.0000   1.0000   1.0000   1.0000   1.0000   1.0000
     1.0000   1.0000   1.0000   1.0000   1.0000   1.0000   1.0000   1.0000
     1.0000   1.0000   1.0000   1.0000   1.0000   1.0000   1.0000   1.0000
     1.0000   1.0000   1.0000   1.0000  -0.0000  -0.0000  -0.0000  -0.0000
    -0.0000  -0.0000  -0.0000  -0.0000  -0.0000  -0.0000

     the Fermi energy is    14.0029 ev

!    total energy              =    -553.10348374 Ry
     estimated scf accuracy    <          8.4E-10 Ry
     smearing contrib. (-TS)   =      -0.00008281 Ry
     internal energy E=F+TS    =    -553.10340093 Ry

     The total energy is F=E-TS. E is the sum of the following terms:
     one-electron contribution =    -190.81364321 Ry
     hartree contribution      =     122.58804098 Ry
     xc contribution           =     -69.89178819 Ry
     ewald contribution        =    -414.98601052 Ry

     convergence has been achieved in   9 iterations

     Forces acting on atoms (cartesian axes, Ry/au):

     atom    1 type  2   force =     0.00000000    0.00000000    0.00000000
     atom    2 type  2   force =     0.00000000    0.00000000    0.00000000
     atom    3 type  1   force =    -0.01481106    0.01481106    0.00000000
     atom    4 type  1   force =     0.01481106    0.01481106   -0.00000000
     atom    5 type  1   force =    -0.01481106   -0.01481106   -0.00000000
     atom    6 type  1   force =     0.01481106   -0.01481106    0.00000000
     The non-local contrib.  to forces
     atom    1 type  2   force =     0.00000000    0.00000000    0.00000000
     atom    2 type  2   force =     0.00000000    0.00000000    0.00000000
     atom    3 type  1   force =    -0.13573485    0.13573485    0.00000000
     atom    4 type  1   force =     0.13573485    0.13573485    0.00000000
     atom    5 type  1   force =    -0.13573485   -0.13573485    0.00000000
     atom    6 type  1   force =     0.13573485   -0.13573485    0.00000000
     The ionic contribution  to forces
     atom    1 type  2   force =    -0.00000000   -0.00000000    0.00000000
     atom    2 type  2   force =     0.00000000    0.00000000   -0.00000000
     atom    3 type  1   force =     1.42937233   -1.42937233    0.00000000
     atom    4 type  1   force =    -1.42937233   -1.42937233   -0.00000000
     atom    5 type  1   force =     1.42937233    1.42937233    0.00000000
     atom    6 type  1   force =    -1.42937233    1.42937233    0.00000000
     The local contribution  to forces
     atom    1 type  2   force =     0.00000000    0.00000000   -0.00000000
     atom    2 type  2   force =     0.00000000    0.00000000    0.00000000
     atom    3 type  1   force =    -1.30844767    1.30844767    0.00000000
     atom    4 type  1   force =     1.30844767    1.30844767    0.00000000
     atom    5 type  1   force =    -1.30844767   -1.30844767   -0.00000000
     atom    6 type  1   force =     1.30844767   -1.30844767    0.00000000
     The core correction contribution to forces
     atom    1 type  2   force =     0.00000000    0.00000000    0.00000000
     atom    2 type  2   force =     0.00000000    0.00000000    0.00000000
     atom    3 type  1   force =     0.00000000    0.00000000    0.00000000
     atom    4 type  1   force =     0.00000000    0.00000000    0.00000000
     atom    5 type  1   force =     0.00000000    0.00000000    0.00000000
     atom    6 type  1   force =     0.00000000    0.00000000    0.00000000
     The Hubbard contrib.    to forces
     atom    1 type  2   force =     0.00000000    0.00000000    0.00000000
     atom    2 type  2   force =     0.00000000    0.00000000    0.00000000
     atom    3 type  1   force =     0.00000000    0.00000000    0.00000000
     atom    4 type  1   force =     0.00000000    0.00000000    0.00000000
     atom    5 type  1   force =     0.00000000    0.00000000    0.00000000
     atom    6 type  1   force =     0.00000000    0.00000000    0.00000000
     The SCF correction term to forces
     atom    1 type  2   force =    -0.00000000   -0.00000000   -0.00000000
     atom    2 type  2   force =    -0.00000000    0.00000000   -0.00000000
     atom    3 type  1   force =    -0.00000087    0.00000087    0.00000000
     atom    4 type  1   force =     0.00000087    0.00000087    0.00000000
     atom    5 type  1   force =    -0.00000087   -0.00000087    0.00000000
     atom    6 type  1   force =     0.00000087   -0.00000087    0.00000000

     Total force =     0.041892     Total SCF correction =     0.000002


     Computing stress (Cartesian axis) and pressure

          total   stress  (Ry/bohr**3)                   (kbar)     P=      -49.29
  -0.00022527   0.00000000   0.00000000          -33.14        0.00        0.00
   0.00000000  -0.00022527   0.00000000            0.00      -33.14        0.00
   0.00000000   0.00000000  -0.00055459            0.00        0.00      -81.58

     kinetic stress (kbar)  48399.93      0.00      0.00
                                0.00  48399.93      0.00
                                0.00      0.00  47565.40

     local   stress (kbar) -12643.34      0.00      0.00
                                0.00 -12643.34     -0.00
                                0.00     -0.00 -44419.72

     nonloc. stress (kbar)  14538.49      0.00      0.00
                                0.00  14538.49      0.00
                                0.00      0.00  14675.66

     hartree stress (kbar)   9593.94     -0.00     -0.00
                               -0.00   9593.94      0.00
                               -0.00      0.00  21364.97

     exc-cor stress (kbar)  -7285.94      0.00      0.00
                                0.00  -7285.94      0.00
                                0.00      0.00  -7260.44

     corecor stress (kbar)      0.00      0.00      0.00
                                0.00      0.00      0.00
                                0.00      0.00      0.00

     ewald   stress (kbar) -52636.21     -0.00     -0.00
                               -0.00 -52636.21     -0.00
                               -0.00     -0.00 -32007.45

     hubbard stress (kbar)      0.00      0.00      0.00
                                0.00      0.00      0.00
                                0.00      0.00      0.00

     DFT-D   stress (kbar)      0.00      0.00      0.00
                                0.00      0.00      0.00
                                0.00      0.00      0.00

     XDM     stress (kbar)      0.00      0.00      0.00
                                0.00      0.00      0.00
                                0.00      0.00      0.00

     dft-nl  stress (kbar)      0.00      0.00      0.00
                                0.00      0.00      0.00
                                0.00      0.00      0.00

     TS-vdW  stress (kbar)      0.00      0.00      0.00
                                0.00      0.00      0.00
                                0.00      0.00      0.00


                                0.00      0.00      0.00
                                0.00      0.00      0.00


                                0.00      0.00      0.00


     Writing all to output data dir tmp/espresso.save/
 
     init_run     :      3.05s CPU      1.60s WALL (       1 calls)
     electrons    :     94.52s CPU     48.39s WALL (       1 calls)
     forces       :      5.09s CPU      2.60s WALL (       1 calls)
     stress       :      7.67s CPU      3.87s WALL (       1 calls)

     Called by init_run:
     wfcinit      :      2.98s CPU      1.54s WALL (       1 calls)
     wfcinit:atom :      0.01s CPU      0.01s WALL (      30 calls)
     wfcinit:wfcr :      2.90s CPU      1.49s WALL (      30 calls)
     potinit      :      0.02s CPU      0.01s WALL (       1 calls)
     hinit0       :      0.03s CPU      0.03s WALL (       1 calls)

     Called by electrons:
     c_bands      :     86.77s CPU     44.40s WALL (       9 calls)
     sum_band     :      7.63s CPU      3.92s WALL (       9 calls)
     v_of_rho     :      0.05s CPU      0.02s WALL (      10 calls)
     v_h          :      0.01s CPU      0.00s WALL (      10 calls)
     v_xc         :      0.04s CPU      0.02s WALL (      10 calls)
     mix_rho      :      0.03s CPU      0.02s WALL (       9 calls)

     Called by c_bands:
     init_us_2    :      0.25s CPU      0.13s WALL (     630 calls)
     init_us_2:cp :      0.25s CPU      0.13s WALL (     630 calls)
     cegterg      :     80.16s CPU     41.03s WALL (     270 calls)

     Called by sum_band:
     sum_band:wei :      0.05s CPU      0.02s WALL (       9 calls)
     sum_band:loo :      7.56s CPU      3.88s WALL (       9 calls)
     sum_band:buf :      0.04s CPU      0.02s WALL (     270 calls)
     sum_band:ini :      0.08s CPU      0.04s WALL (     270 calls)

     Called by *egterg:
     cdiaghg      :     13.18s CPU      6.70s WALL (    1068 calls)
     cegterg:over :      4.87s CPU      2.48s WALL (     798 calls)
     cegterg:upda :      3.91s CPU      1.99s WALL (     798 calls)
     cegterg:last :      6.69s CPU      3.41s WALL (     540 calls)
     cdiaghg:chol :      0.61s CPU      0.31s WALL (    1068 calls)
     cdiaghg:inve :      0.09s CPU      0.05s WALL (    1068 calls)
     cdiaghg:para :      1.37s CPU      0.70s WALL (    2136 calls)
     h_psi        :     52.39s CPU     26.92s WALL (    1098 calls)
     g_psi        :      0.08s CPU      0.04s WALL (     798 calls)

     Called by h_psi:
     h_psi:calbec :      6.37s CPU      3.34s WALL (    1098 calls)
     vloc_psi     :     36.68s CPU     18.83s WALL (    1098 calls)
     add_vuspsi   :      9.23s CPU      4.69s WALL (    1098 calls)

     General routines
     calbec       :      8.18s CPU      4.27s WALL (    1248 calls)
     fft          :      0.06s CPU      0.03s WALL (     137 calls)
     ffts         :      0.01s CPU      0.01s WALL (      36 calls)
     fftw         :     41.43s CPU     21.28s WALL (  235288 calls)
 
     Parallel routines
 
     PWSCF        :   1m54.47s CPU   1m 1.06s WALL

 
   This run was terminated on:   9:45: 2  10Apr2022            

=------------------------------------------------------------------------------=
   JOB DONE.
=------------------------------------------------------------------------------=
