
     Program PWSCF v.7.0 starts on 10Apr2022 at 11:13:15 

     This program is part of the open-source Quantum ESPRESSO suite
     for quantum simulation of materials; please cite
         "P. Giannozzi et al., J. Phys.:Condens. Matter 21 395502 (2009);
         "P. Giannozzi et al., J. Phys.:Condens. Matter 29 465901 (2017);
         "P. Giannozzi et al., J. Chem. Phys. 152 154105 (2020);
          URL http://www.quantum-espresso.org", 
     in publications or presentations arising from this work. More details at
     http://www.quantum-espresso.org/quote

     Parallel version (MPI & OpenMP), running on      64 processor cores
     Number of MPI processes:                32
     Threads/MPI process:                     2

     MPI processes distributed on     1 nodes
     R & G space division:  proc/nbgrp/npool/nimage =      32
     230404 MiB available memory on the printing compute node when the environment starts
 
     Reading input from kpoints_339.pwi
Warning: card &CELL ignored
Warning: card / ignored

     Current dimensions of program PWSCF are:
     Max number of different atomic species (ntypx) = 10
     Max number of k-points (npk) =  40000
     Max angular momentum in pseudopotentials (lmaxx) =  4

     Subspace diagonalization in iterative solution of the eigenvalue problem:
     one sub-group per band group will be used
     scalapack distributed-memory algorithm (size of sub-group:  5*  5 procs)

 
     Parallelization info
     --------------------
     sticks:   dense  smooth     PW     G-vecs:    dense   smooth      PW
     Min          58      58     16                 1342     1342     200
     Max          59      59     17                 1345     1345     203
     Sum        1885    1885    529                42999    42999    6435
 
     Using Slab Decomposition
 

     Title: 
     IrO2 Unit Cell                                                             


     bravais-lattice index     =            6
     lattice parameter (alat)  =       8.5888  a.u.
     unit-cell volume          =     444.6868 (a.u.)^3
     number of atoms/cell      =            6
     number of atomic types    =            2
     number of electrons       =        58.00
     number of Kohn-Sham states=           70
     kinetic-energy cutoff     =      80.0000  Ry
     charge density cutoff     =     320.0000  Ry
     scf convergence threshold =      1.0E-09
     mixing beta               =       0.7000
     number of iterations used =            8  plain     mixing
     Exchange-correlation= PBE
                           (   1   4   3   4   0   0   0)
     Non magnetic calculation with spin-orbit


     celldm(1)=   8.588800  celldm(2)=   0.000000  celldm(3)=   0.701870
     celldm(4)=   0.000000  celldm(5)=   0.000000  celldm(6)=   0.000000

     crystal axes: (cart. coord. in units of alat)
               a(1) = (   1.000000   0.000000   0.000000 )  
               a(2) = (   0.000000   1.000000   0.000000 )  
               a(3) = (   0.000000   0.000000   0.701870 )  

     reciprocal axes: (cart. coord. in units 2 pi/alat)
               b(1) = (  1.000000  0.000000  0.000000 )  
               b(2) = (  0.000000  1.000000  0.000000 )  
               b(3) = (  0.000000  0.000000  1.424765 )  


     PseudoPot. # 1 for O  read from file:
     ../../XX_PSEUDO/O_ONCV_PBE_fr.upf
     MD5 check sum: 59c925217d3b58c6d762355590b68b09
     Pseudo is Norm-conserving, Zval =  6.0
     Generated using ONCVPSP code by D. R. Hamann
     Using radial grid of  936 points,  6 beta functions with: 
                l(1) =   0
                l(2) =   0
                l(3) =   1
                l(4) =   1
                l(5) =   1
                l(6) =   1

     PseudoPot. # 2 for Ir read from file:
     ../../XX_PSEUDO/Ir_ONCV_PBE_fr.upf
     MD5 check sum: 924e909c4146afa09f62ee3401806954
     Pseudo is Norm-conserving, Zval = 17.0
     Generated using ONCVPSP code by D. R. Hamann
     Using radial grid of 1310 points, 14 beta functions with: 
                l(1) =   0
                l(2) =   0
                l(3) =   1
                l(4) =   1
                l(5) =   1
                l(6) =   1
                l(7) =   2
                l(8) =   2
                l(9) =   2
               l(10) =   2
               l(11) =   3
               l(12) =   3
               l(13) =   3
               l(14) =   3

     atomic species   valence    mass     pseudopotential
        O              6.00    15.99900     O ( 1.00)
        Ir            17.00   192.21700     Ir( 1.00)

     16 Sym. Ops., with inversion, found ( 8 have fractional translation)


                                    s                        frac. trans.

      isym =  1     identity                                     

 cryst.   s( 1) = (     1          0          0      )
                  (     0          1          0      )
                  (     0          0          1      )

 cart.    s( 1) = (  1.0000000  0.0000000  0.0000000 )
                  (  0.0000000  1.0000000  0.0000000 )
                  (  0.0000000  0.0000000  1.0000000 )


      isym =  2     180 deg rotation - cart. axis [0,0,1]        

 cryst.   s( 2) = (    -1          0          0      )
                  (     0         -1          0      )
                  (     0          0          1      )

 cart.    s( 2) = ( -1.0000000  0.0000000  0.0000000 )
                  (  0.0000000 -1.0000000  0.0000000 )
                  (  0.0000000  0.0000000  1.0000000 )


      isym =  3     180 deg rotation - cart. axis [0,1,0]        

 cryst.   s( 3) = (    -1          0          0      )    f =(  0.5000000 )
                  (     0          1          0      )       ( -0.5000000 )
                  (     0          0         -1      )       (  0.5000000 )

 cart.    s( 3) = ( -1.0000000  0.0000000  0.0000000 )    f =(  0.5000000 )
                  (  0.0000000  1.0000000  0.0000000 )       ( -0.5000000 )
                  (  0.0000000  0.0000000 -1.0000000 )       (  0.3509351 )


      isym =  4     180 deg rotation - cart. axis [1,0,0]        

 cryst.   s( 4) = (     1          0          0      )    f =( -0.5000000 )
                  (     0         -1          0      )       (  0.5000000 )
                  (     0          0         -1      )       (  0.5000000 )

 cart.    s( 4) = (  1.0000000  0.0000000  0.0000000 )    f =( -0.5000000 )
                  (  0.0000000 -1.0000000  0.0000000 )       (  0.5000000 )
                  (  0.0000000  0.0000000 -1.0000000 )       (  0.3509351 )


      isym =  5     180 deg rotation - cart. axis [1,1,0]        

 cryst.   s( 5) = (     0          1          0      )
                  (     1          0          0      )
                  (     0          0         -1      )

 cart.    s( 5) = (  0.0000000  1.0000000  0.0000000 )
                  (  1.0000000  0.0000000  0.0000000 )
                  (  0.0000000  0.0000000 -1.0000000 )


      isym =  6     180 deg rotation - cart. axis [1,-1,0]       

 cryst.   s( 6) = (     0         -1          0      )
                  (    -1          0          0      )
                  (     0          0         -1      )

 cart.    s( 6) = (  0.0000000 -1.0000000  0.0000000 )
                  ( -1.0000000  0.0000000  0.0000000 )
                  (  0.0000000  0.0000000 -1.0000000 )


      isym =  7      90 deg rotation - cart. axis [0,0,-1]       

 cryst.   s( 7) = (     0         -1          0      )    f =( -0.5000000 )
                  (     1          0          0      )       (  0.5000000 )
                  (     0          0          1      )       ( -0.5000000 )

 cart.    s( 7) = (  0.0000000  1.0000000  0.0000000 )    f =( -0.5000000 )
                  ( -1.0000000  0.0000000  0.0000000 )       (  0.5000000 )
                  (  0.0000000  0.0000000  1.0000000 )       ( -0.3509351 )


      isym =  8      90 deg rotation - cart. axis [0,0,1]        

 cryst.   s( 8) = (     0          1          0      )    f =(  0.5000000 )
                  (    -1          0          0      )       ( -0.5000000 )
                  (     0          0          1      )       ( -0.5000000 )

 cart.    s( 8) = (  0.0000000 -1.0000000  0.0000000 )    f =(  0.5000000 )
                  (  1.0000000  0.0000000  0.0000000 )       ( -0.5000000 )
                  (  0.0000000  0.0000000  1.0000000 )       ( -0.3509351 )


      isym =  9     inversion                                    

 cryst.   s( 9) = (    -1          0          0      )
                  (     0         -1          0      )
                  (     0          0         -1      )

 cart.    s( 9) = ( -1.0000000  0.0000000  0.0000000 )
                  (  0.0000000 -1.0000000  0.0000000 )
                  (  0.0000000  0.0000000 -1.0000000 )


      isym = 10     inv. 180 deg rotation - cart. axis [0,0,1]   

 cryst.   s(10) = (     1          0          0      )
                  (     0          1          0      )
                  (     0          0         -1      )

 cart.    s(10) = (  1.0000000  0.0000000  0.0000000 )
                  (  0.0000000  1.0000000  0.0000000 )
                  (  0.0000000  0.0000000 -1.0000000 )


      isym = 11     inv. 180 deg rotation - cart. axis [0,1,0]   

 cryst.   s(11) = (     1          0          0      )    f =( -0.5000000 )
                  (     0         -1          0      )       (  0.5000000 )
                  (     0          0          1      )       ( -0.5000000 )

 cart.    s(11) = (  1.0000000  0.0000000  0.0000000 )    f =( -0.5000000 )
                  (  0.0000000 -1.0000000  0.0000000 )       (  0.5000000 )
                  (  0.0000000  0.0000000  1.0000000 )       ( -0.3509351 )


      isym = 12     inv. 180 deg rotation - cart. axis [1,0,0]   

 cryst.   s(12) = (    -1          0          0      )    f =(  0.5000000 )
                  (     0          1          0      )       ( -0.5000000 )
                  (     0          0          1      )       ( -0.5000000 )

 cart.    s(12) = ( -1.0000000  0.0000000  0.0000000 )    f =(  0.5000000 )
                  (  0.0000000  1.0000000  0.0000000 )       ( -0.5000000 )
                  (  0.0000000  0.0000000  1.0000000 )       ( -0.3509351 )


      isym = 13     inv. 180 deg rotation - cart. axis [1,1,0]   

 cryst.   s(13) = (     0         -1          0      )
                  (    -1          0          0      )
                  (     0          0          1      )

 cart.    s(13) = (  0.0000000 -1.0000000  0.0000000 )
                  ( -1.0000000  0.0000000  0.0000000 )
                  (  0.0000000  0.0000000  1.0000000 )


      isym = 14     inv. 180 deg rotation - cart. axis [1,-1,0]  

 cryst.   s(14) = (     0          1          0      )
                  (     1          0          0      )
                  (     0          0          1      )

 cart.    s(14) = (  0.0000000  1.0000000  0.0000000 )
                  (  1.0000000  0.0000000  0.0000000 )
                  (  0.0000000  0.0000000  1.0000000 )


      isym = 15     inv.  90 deg rotation - cart. axis [0,0,-1]  

 cryst.   s(15) = (     0          1          0      )    f =(  0.5000000 )
                  (    -1          0          0      )       ( -0.5000000 )
                  (     0          0         -1      )       (  0.5000000 )

 cart.    s(15) = (  0.0000000 -1.0000000  0.0000000 )    f =(  0.5000000 )
                  (  1.0000000  0.0000000  0.0000000 )       ( -0.5000000 )
                  (  0.0000000  0.0000000 -1.0000000 )       (  0.3509351 )


      isym = 16     inv.  90 deg rotation - cart. axis [0,0,1]   

 cryst.   s(16) = (     0         -1          0      )    f =( -0.5000000 )
                  (     1          0          0      )       (  0.5000000 )
                  (     0          0         -1      )       (  0.5000000 )

 cart.    s(16) = (  0.0000000  1.0000000  0.0000000 )    f =( -0.5000000 )
                  ( -1.0000000  0.0000000  0.0000000 )       (  0.5000000 )
                  (  0.0000000  0.0000000 -1.0000000 )       (  0.3509351 )


     double point group D_4h(4/mmm)
     there are 14 classes and  4 irreducible representations
     the character table:

       E     -E    2C4   -2C4   C2    2C2' 2C2'' i     -i    2S4   -2S4   s_h 
                               -C2   -2C2' -2C2'                         -s_h 
G_6+   2.00 -2.00  1.41 -1.41  0.00  0.00  0.00  2.00 -2.00  1.41 -1.41  0.00
G_7+   2.00 -2.00 -1.41  1.41  0.00  0.00  0.00  2.00 -2.00 -1.41  1.41  0.00
G_6-   2.00 -2.00  1.41 -1.41  0.00  0.00  0.00 -2.00  2.00 -1.41  1.41  0.00
G_7-   2.00 -2.00 -1.41  1.41  0.00  0.00  0.00 -2.00  2.00  1.41 -1.41  0.00

        2s_v  2s_d
       -2s_v -2s_d
G_6+   0.00  0.00
G_7+   0.00  0.00
G_6-   0.00  0.00
G_7-   0.00  0.00

     the symmetry operations in each class and the name of the first element:

     E             1
          identity                                               
     -E           -1
          identity E                                             
     2C4           7    8
           90 deg rotation - cart. axis [0,0,-1]                 
     -2C4         -7   -8
           90 deg rotation - cart. axis [0,0,-1] E               
      C2  -C2      2   -2
          180 deg rotation - cart. axis [0,0,1]                  
      2C2'-2C2'    3   -3    4   -4
          180 deg rotation - cart. axis [0,1,0]                  
     2C2''-2C2'    5   -5   -6    6
          180 deg rotation - cart. axis [1,1,0]                  
     i             9
          inversion                                              
     -i           -9
          inversion E                                            
     2S4          15   16
          inv.  90 deg rotation - cart. axis [0,0,-1]            
     -2S4        -15  -16
          inv.  90 deg rotation - cart. axis [0,0,-1] E          
      s_h -s_h    10  -10
          inv. 180 deg rotation - cart. axis [0,0,1]             
      2s_v-2s_v   11  -11   12  -12
          inv. 180 deg rotation - cart. axis [0,1,0]             
      2s_d-2s_d   13  -13  -14   14
          inv. 180 deg rotation - cart. axis [1,1,0]             

   Cartesian axes

     site n.     atom                  positions (alat units)
         1           Ir  tau(   1) = (   0.0000000   0.0000000   0.0000000  )
         2           Ir  tau(   2) = (   0.5000000   0.5000000   0.3509351  )
         3           O   tau(   3) = (   0.1916000   0.8084000   0.3509351  )
         4           O   tau(   4) = (   0.3084000   0.3084000   0.0000000  )
         5           O   tau(   5) = (   0.6916000   0.6916000   0.0000000  )
         6           O   tau(   6) = (   0.8084000   0.1916000   0.3509351  )

   Crystallographic axes

     site n.     atom                  positions (cryst. coord.)
         1           Ir  tau(   1) = (  0.0000000  0.0000000  0.0000000  )
         2           Ir  tau(   2) = (  0.5000000  0.5000000  0.5000000  )
         3           O   tau(   3) = (  0.1916000  0.8084000  0.5000000  )
         4           O   tau(   4) = (  0.3084000  0.3084000  0.0000000  )
         5           O   tau(   5) = (  0.6916000  0.6916000  0.0000000  )
         6           O   tau(   6) = (  0.8084000  0.1916000  0.5000000  )

     number of k points=    15  Methfessel-Paxton smearing, width (Ry)=  0.0050
                       cart. coord. in units 2pi/alat
        k(    1) = (   0.0000000   0.0000000   0.0000000), wk =   0.0123457
        k(    2) = (   0.0000000   0.0000000   0.1583072), wk =   0.0246914
        k(    3) = (   0.0000000   0.0000000   0.3166144), wk =   0.0246914
        k(    4) = (   0.0000000   0.0000000   0.4749216), wk =   0.0246914
        k(    5) = (   0.0000000   0.0000000   0.6332288), wk =   0.0246914
        k(    6) = (   0.0000000   0.3333333   0.0000000), wk =   0.0493827
        k(    7) = (   0.0000000   0.3333333   0.1583072), wk =   0.0987654
        k(    8) = (   0.0000000   0.3333333   0.3166144), wk =   0.0987654
        k(    9) = (   0.0000000   0.3333333   0.4749216), wk =   0.0987654
        k(   10) = (   0.0000000   0.3333333   0.6332288), wk =   0.0987654
        k(   11) = (   0.3333333   0.3333333   0.0000000), wk =   0.0493827
        k(   12) = (   0.3333333   0.3333333   0.1583072), wk =   0.0987654
        k(   13) = (   0.3333333   0.3333333   0.3166144), wk =   0.0987654
        k(   14) = (   0.3333333   0.3333333   0.4749216), wk =   0.0987654
        k(   15) = (   0.3333333   0.3333333   0.6332288), wk =   0.0987654

                       cryst. coord.
        k(    1) = (   0.0000000   0.0000000   0.0000000), wk =   0.0123457
        k(    2) = (   0.0000000   0.0000000   0.1111111), wk =   0.0246914
        k(    3) = (   0.0000000   0.0000000   0.2222222), wk =   0.0246914
        k(    4) = (   0.0000000   0.0000000   0.3333333), wk =   0.0246914
        k(    5) = (   0.0000000   0.0000000   0.4444444), wk =   0.0246914
        k(    6) = (   0.0000000   0.3333333   0.0000000), wk =   0.0493827
        k(    7) = (   0.0000000   0.3333333   0.1111111), wk =   0.0987654
        k(    8) = (   0.0000000   0.3333333   0.2222222), wk =   0.0987654
        k(    9) = (   0.0000000   0.3333333   0.3333333), wk =   0.0987654
        k(   10) = (   0.0000000   0.3333333   0.4444444), wk =   0.0987654
        k(   11) = (   0.3333333   0.3333333   0.0000000), wk =   0.0493827
        k(   12) = (   0.3333333   0.3333333   0.1111111), wk =   0.0987654
        k(   13) = (   0.3333333   0.3333333   0.2222222), wk =   0.0987654
        k(   14) = (   0.3333333   0.3333333   0.3333333), wk =   0.0987654
        k(   15) = (   0.3333333   0.3333333   0.4444444), wk =   0.0987654

     Dense  grid:    42999 G-vectors     FFT dimensions: (  50,  50,  36)

     Dynamical RAM for                 wfc:       0.36 MB

     Dynamical RAM for     wfc (w. buffer):       5.71 MB

     Dynamical RAM for           str. fact:       0.04 MB

     Dynamical RAM for           local pot:       0.00 MB

     Dynamical RAM for          nlocal pot:       0.46 MB

     Dynamical RAM for                qrad:      20.10 MB

     Dynamical RAM for          rho,v,vnew:       0.70 MB

     Dynamical RAM for               rhoin:       0.23 MB

     Dynamical RAM for            rho*nmix:       1.31 MB

     Dynamical RAM for           G-vectors:       0.09 MB

     Dynamical RAM for          h,s,v(r/c):       0.04 MB

     Dynamical RAM for          <psi|beta>:       0.38 MB

     Dynamical RAM for                 psi:       0.71 MB

     Dynamical RAM for                hpsi:       0.71 MB

     Dynamical RAM for      wfcinit/wfcrot:       0.67 MB

     Estimated static dynamical RAM per process >      27.70 MB

     Estimated max dynamical RAM per process >      30.86 MB

     Estimated total dynamical RAM >     987.49 MB

     Initial potential from superposition of free atoms

     starting charge      57.9997, renormalised to      58.0000
     Starting wfcs are   72 randomized atomic wfcs

     total cpu time spent up to now is        0.9 secs

     Self-consistent Calculation

     iteration #  1     ecut=    80.00 Ry     beta= 0.70
     Davidson diagonalization with overlap

---- Real-time Memory Report at c_bands before calling an iterative solver
            79 MiB given to the printing process from OS
             0 MiB allocation reported by mallinfo(arena+hblkhd)
        228944 MiB available memory on the node where the printing process lives
------------------
     ethr =  1.00E-02,  avg # of iterations =  2.5

     total cpu time spent up to now is        3.5 secs

     total energy              =    -552.42908089 Ry
     estimated scf accuracy    <       1.21298386 Ry

     iteration #  2     ecut=    80.00 Ry     beta= 0.70
     Davidson diagonalization with overlap

---- Real-time Memory Report at c_bands before calling an iterative solver
            84 MiB given to the printing process from OS
             0 MiB allocation reported by mallinfo(arena+hblkhd)
        228807 MiB available memory on the node where the printing process lives
------------------
     ethr =  2.09E-03,  avg # of iterations =  2.0

     total cpu time spent up to now is        6.3 secs

     total energy              =    -552.25329183 Ry
     estimated scf accuracy    <       4.38347650 Ry

     iteration #  3     ecut=    80.00 Ry     beta= 0.70
     Davidson diagonalization with overlap

---- Real-time Memory Report at c_bands before calling an iterative solver
            85 MiB given to the printing process from OS
             0 MiB allocation reported by mallinfo(arena+hblkhd)
        228764 MiB available memory on the node where the printing process lives
------------------
     ethr =  2.09E-03,  avg # of iterations =  2.0

     total cpu time spent up to now is        8.9 secs

     total energy              =    -553.07753602 Ry
     estimated scf accuracy    <       0.03649562 Ry

     iteration #  4     ecut=    80.00 Ry     beta= 0.70
     Davidson diagonalization with overlap

---- Real-time Memory Report at c_bands before calling an iterative solver
            88 MiB given to the printing process from OS
             0 MiB allocation reported by mallinfo(arena+hblkhd)
        228717 MiB available memory on the node where the printing process lives
------------------
     ethr =  6.29E-05,  avg # of iterations =  2.0

     total cpu time spent up to now is       12.6 secs

     total energy              =    -553.08104076 Ry
     estimated scf accuracy    <       0.00557325 Ry

     iteration #  5     ecut=    80.00 Ry     beta= 0.70
     Davidson diagonalization with overlap

---- Real-time Memory Report at c_bands before calling an iterative solver
            89 MiB given to the printing process from OS
             0 MiB allocation reported by mallinfo(arena+hblkhd)
        228704 MiB available memory on the node where the printing process lives
------------------
     ethr =  9.61E-06,  avg # of iterations =  2.0

     total cpu time spent up to now is       15.2 secs

     total energy              =    -553.08204552 Ry
     estimated scf accuracy    <       0.00026285 Ry

     iteration #  6     ecut=    80.00 Ry     beta= 0.70
     Davidson diagonalization with overlap

---- Real-time Memory Report at c_bands before calling an iterative solver
            89 MiB given to the printing process from OS
             0 MiB allocation reported by mallinfo(arena+hblkhd)
        228688 MiB available memory on the node where the printing process lives
------------------
     ethr =  4.53E-07,  avg # of iterations =  2.7

     total cpu time spent up to now is       17.6 secs

     total energy              =    -553.08208186 Ry
     estimated scf accuracy    <       0.00000858 Ry

     iteration #  7     ecut=    80.00 Ry     beta= 0.70
     Davidson diagonalization with overlap

---- Real-time Memory Report at c_bands before calling an iterative solver
            90 MiB given to the printing process from OS
             0 MiB allocation reported by mallinfo(arena+hblkhd)
        228679 MiB available memory on the node where the printing process lives
------------------
     ethr =  1.48E-08,  avg # of iterations =  2.0

     total cpu time spent up to now is       20.4 secs

     total energy              =    -553.08208464 Ry
     estimated scf accuracy    <       0.00000040 Ry

     iteration #  8     ecut=    80.00 Ry     beta= 0.70
     Davidson diagonalization with overlap

---- Real-time Memory Report at c_bands before calling an iterative solver
            90 MiB given to the printing process from OS
             0 MiB allocation reported by mallinfo(arena+hblkhd)
        228651 MiB available memory on the node where the printing process lives
------------------
     ethr =  6.96E-10,  avg # of iterations =  2.0

     total cpu time spent up to now is       22.7 secs

     total energy              =    -553.08208469 Ry
     estimated scf accuracy    <       0.00000003 Ry

     iteration #  9     ecut=    80.00 Ry     beta= 0.70
     Davidson diagonalization with overlap

---- Real-time Memory Report at c_bands before calling an iterative solver
            91 MiB given to the printing process from OS
             0 MiB allocation reported by mallinfo(arena+hblkhd)
        228648 MiB available memory on the node where the printing process lives
------------------
     ethr =  5.02E-11,  avg # of iterations =  2.0

     total cpu time spent up to now is       25.4 secs

     total energy              =    -553.08208470 Ry
     estimated scf accuracy    <          2.5E-09 Ry

     iteration # 10     ecut=    80.00 Ry     beta= 0.70
     Davidson diagonalization with overlap

---- Real-time Memory Report at c_bands before calling an iterative solver
            92 MiB given to the printing process from OS
             0 MiB allocation reported by mallinfo(arena+hblkhd)
        228644 MiB available memory on the node where the printing process lives
------------------
     ethr =  4.26E-12,  avg # of iterations =  2.0

     total cpu time spent up to now is       28.0 secs

     End of self-consistent calculation

          k = 0.0000 0.0000 0.0000 (  5409 PWs)   bands (ev):

   -79.3863 -79.3863 -79.3849 -79.3849 -46.2285 -46.2285 -46.2178 -46.2178
   -32.7677 -32.7677 -32.7570 -32.7570 -32.6235 -32.6235 -32.6091 -32.6091
    -7.0737  -7.0737  -5.9179  -5.9179  -5.0030  -5.0030  -4.8015  -4.8015
     4.2691   4.2691   4.5160   4.5160   6.0328   6.0328   6.1443   6.1443
     6.2585   6.2585   8.7860   8.7860   8.9386   8.9386   9.1963   9.1963
    10.3331  10.3331  10.9890  10.9890  10.9893  10.9893  11.0315  11.0315
    11.2036  11.2036  11.3847  11.3847  11.6472  11.6472  11.6714  11.6714
    12.0576  12.0576  14.6439  14.6439  15.0714  15.0714  17.6880  17.6880
    17.8968  17.8968  18.0450  18.0450  19.4473  19.4473

     occupation numbers 
     1.0000   1.0000   1.0000   1.0000   1.0000   1.0000   1.0000   1.0000
     1.0000   1.0000   1.0000   1.0000   1.0000   1.0000   1.0000   1.0000
     1.0000   1.0000   1.0000   1.0000   1.0000   1.0000   1.0000   1.0000
     1.0000   1.0000   1.0000   1.0000   1.0000   1.0000   1.0000   1.0000
     1.0000   1.0000   1.0000   1.0000   1.0000   1.0000   1.0000   1.0000
     1.0000   1.0000   1.0000   1.0000   1.0000   1.0000   1.0000   1.0000
     1.0000   1.0000   1.0000   1.0000   1.0000   1.0000   1.0000   1.0000
     1.0000   1.0000  -0.0000  -0.0000  -0.0000  -0.0000  -0.0000  -0.0000
    -0.0000  -0.0000  -0.0000  -0.0000  -0.0000  -0.0000

          k = 0.0000 0.0000 0.1583 (  5361 PWs)   bands (ev):

   -79.3860 -79.3860 -79.3847 -79.3847 -46.2295 -46.2295 -46.2194 -46.2194
   -32.7704 -32.7704 -32.7637 -32.7637 -32.6285 -32.6285 -32.6115 -32.6115
    -6.9614  -6.9614  -5.8593  -5.8593  -5.0557  -5.0557  -4.8722  -4.8722
     4.4326   4.4326   4.6342   4.6342   6.1307   6.1307   6.2117   6.2117
     6.3775   6.3775   8.3481   8.3481   9.0285   9.0285   9.2829   9.2829
     9.6571   9.6571  10.2170  10.2170  10.3328  10.3328  11.3365  11.3365
    11.5906  11.5906  11.6103  11.6103  11.6944  11.6944  12.2598  12.2598
    12.3730  12.3730  14.9081  14.9081  14.9552  14.9552  17.3960  17.3960
    17.7164  17.7164  18.2268  18.2268  19.2221  19.2221

     occupation numbers 
     1.0000   1.0000   1.0000   1.0000   1.0000   1.0000   1.0000   1.0000
     1.0000   1.0000   1.0000   1.0000   1.0000   1.0000   1.0000   1.0000
     1.0000   1.0000   1.0000   1.0000   1.0000   1.0000   1.0000   1.0000
     1.0000   1.0000   1.0000   1.0000   1.0000   1.0000   1.0000   1.0000
     1.0000   1.0000   1.0000   1.0000   1.0000   1.0000   1.0000   1.0000
     1.0000   1.0000   1.0000   1.0000   1.0000   1.0000   1.0000   1.0000
     1.0000   1.0000   1.0000   1.0000   1.0000   1.0000   1.0000   1.0000
     1.0000   1.0000  -0.0000  -0.0000  -0.0000  -0.0000  -0.0000  -0.0000
    -0.0000  -0.0000  -0.0000  -0.0000  -0.0000  -0.0000

          k = 0.0000 0.0000 0.3166 (  5381 PWs)   bands (ev):

   -79.3852 -79.3852 -79.3841 -79.3841 -46.2319 -46.2319 -46.2237 -46.2237
   -32.7813 -32.7813 -32.7804 -32.7804 -32.6375 -32.6375 -32.6171 -32.6171
    -6.6562  -6.6562  -5.7250  -5.7250  -5.1830  -5.1830  -5.0476  -5.0476
     4.8894   4.8894   4.9482   4.9482   6.3889   6.3889   6.4046   6.4046
     6.7330   6.7330   7.4661   7.4661   8.5374   8.5374   9.2503   9.2503
     9.3601   9.3601   9.5298   9.5298   9.7350   9.7350  10.7781  10.7781
    11.7802  11.7802  11.8689  11.8689  12.0993  12.0993  13.0147  13.0147
    13.0350  13.0350  14.6274  14.6274  15.4958  15.4958  16.8014  16.8014
    17.0971  17.0971  18.1970  18.1970  19.5583  19.5583

     occupation numbers 
     1.0000   1.0000   1.0000   1.0000   1.0000   1.0000   1.0000   1.0000
     1.0000   1.0000   1.0000   1.0000   1.0000   1.0000   1.0000   1.0000
     1.0000   1.0000   1.0000   1.0000   1.0000   1.0000   1.0000   1.0000
     1.0000   1.0000   1.0000   1.0000   1.0000   1.0000   1.0000   1.0000
     1.0000   1.0000   1.0000   1.0000   1.0000   1.0000   1.0000   1.0000
     1.0000   1.0000   1.0000   1.0000   1.0000   1.0000   1.0000   1.0000
     1.0000   1.0000   1.0000   1.0000   1.0000   1.0000   1.0000   1.0000
     1.0000   1.0000  -0.0000  -0.0000  -0.0000  -0.0000  -0.0000  -0.0000
    -0.0000  -0.0000  -0.0000  -0.0000  -0.0000  -0.0000

          k = 0.0000 0.0000 0.4749 (  5385 PWs)   bands (ev):

   -79.3842 -79.3842 -79.3835 -79.3835 -46.2342 -46.2342 -46.2289 -46.2289
   -32.8020 -32.8020 -32.7975 -32.7975 -32.6408 -32.6408 -32.6235 -32.6235
    -6.2479  -6.2479  -5.6216  -5.6216  -5.3127  -5.3127  -5.2437  -5.2437
     5.3321   5.3321   5.5061   5.5061   6.5562   6.5562   6.7261   6.7261
     6.8438   6.8438   7.3058   7.3058   7.6374   7.6374   8.6704   8.6704
     8.8249   8.8249   9.6604   9.6604   9.9066   9.9066   9.9389   9.9389
    11.7948  11.7948  12.1871  12.1871  12.2731  12.2731  13.5521  13.5521
    13.6445  13.6445  14.1930  14.1930  15.9766  15.9766  16.3333  16.3333
    16.6282  16.6282  17.3627  17.3627  20.8844  20.8844

     occupation numbers 
     1.0000   1.0000   1.0000   1.0000   1.0000   1.0000   1.0000   1.0000
     1.0000   1.0000   1.0000   1.0000   1.0000   1.0000   1.0000   1.0000
     1.0000   1.0000   1.0000   1.0000   1.0000   1.0000   1.0000   1.0000
     1.0000   1.0000   1.0000   1.0000   1.0000   1.0000   1.0000   1.0000
     1.0000   1.0000   1.0000   1.0000   1.0000   1.0000   1.0000   1.0000
     1.0000   1.0000   1.0000   1.0000   1.0000   1.0000   1.0000   1.0000
     1.0000   1.0000   1.0000   1.0000   1.0000   1.0000   1.0000   1.0000
     1.0000   1.0000  -0.0003  -0.0003  -0.0000  -0.0000  -0.0000  -0.0000
    -0.0000  -0.0000  -0.0000  -0.0000  -0.0000  -0.0000

          k = 0.0000 0.0000 0.6332 (  5390 PWs)   bands (ev):

   -79.3835 -79.3835 -79.3832 -79.3832 -46.2349 -46.2349 -46.2331 -46.2331
   -32.8147 -32.8147 -32.8125 -32.8125 -32.6370 -32.6370 -32.6303 -32.6303
    -5.8684  -5.8684  -5.6501  -5.6501  -5.3921  -5.3921  -5.3766  -5.3766
     5.6273   5.6273   5.8094   5.8094   6.4886   6.4886   6.9383   6.9383
     7.0507   7.0507   7.0581   7.0581   8.0699   8.0699   8.2547   8.2547
     8.3480   8.3480   9.0021   9.0021   9.8894   9.8894   9.9863   9.9863
    11.8203  11.8203  12.0064  12.0064  12.7969  12.7969  13.3603  13.3603
    14.0397  14.0397  14.1183  14.1183  16.0900  16.0900  16.1252  16.1252
    16.5371  16.5371  16.7569  16.7569  22.2806  22.2806

     occupation numbers 
     1.0000   1.0000   1.0000   1.0000   1.0000   1.0000   1.0000   1.0000
     1.0000   1.0000   1.0000   1.0000   1.0000   1.0000   1.0000   1.0000
     1.0000   1.0000   1.0000   1.0000   1.0000   1.0000   1.0000   1.0000
     1.0000   1.0000   1.0000   1.0000   1.0000   1.0000   1.0000   1.0000
     1.0000   1.0000   1.0000   1.0000   1.0000   1.0000   1.0000   1.0000
     1.0000   1.0000   1.0000   1.0000   1.0000   1.0000   1.0000   1.0000
     1.0000   1.0000   1.0000   1.0000   1.0000   1.0000   1.0000   1.0000
     0.1208   0.1208  -0.0198  -0.0198  -0.0000  -0.0000  -0.0000  -0.0000
    -0.0000  -0.0000  -0.0000  -0.0000  -0.0000  -0.0000

          k = 0.0000 0.3333 0.0000 (  5372 PWs)   bands (ev):

   -79.3859 -79.3859 -79.3853 -79.3853 -46.2259 -46.2259 -46.2205 -46.2205
   -32.7627 -32.7627 -32.7573 -32.7573 -32.6227 -32.6227 -32.6155 -32.6155
    -6.6790  -6.6790  -5.9658  -5.9658  -5.2771  -5.2771  -5.0939  -5.0939
     5.1636   5.1636   5.2426   5.2426   6.1583   6.1583   6.2163   6.2163
     6.9472   6.9472   7.7711   7.7711   7.9150   7.9150   8.6248   8.6248
     9.0217   9.0217   9.2187   9.2187  10.6175  10.6175  11.1878  11.1878
    11.8992  11.8992  12.0130  12.0130  12.2283  12.2283  12.4089  12.4089
    12.9457  12.9457  14.3186  14.3186  16.1640  16.1640  17.3603  17.3603
    17.5875  17.5875  18.4839  18.4839  19.5074  19.5074

     occupation numbers 
     1.0000   1.0000   1.0000   1.0000   1.0000   1.0000   1.0000   1.0000
     1.0000   1.0000   1.0000   1.0000   1.0000   1.0000   1.0000   1.0000
     1.0000   1.0000   1.0000   1.0000   1.0000   1.0000   1.0000   1.0000
     1.0000   1.0000   1.0000   1.0000   1.0000   1.0000   1.0000   1.0000
     1.0000   1.0000   1.0000   1.0000   1.0000   1.0000   1.0000   1.0000
     1.0000   1.0000   1.0000   1.0000   1.0000   1.0000   1.0000   1.0000
     1.0000   1.0000   1.0000   1.0000   1.0000   1.0000   1.0000   1.0000
     1.0000   1.0000  -0.0000  -0.0000  -0.0000  -0.0000  -0.0000  -0.0000
    -0.0000  -0.0000  -0.0000  -0.0000  -0.0000  -0.0000

          k = 0.0000 0.3333 0.1583 (  5385 PWs)   bands (ev):

   -79.3856 -79.3856 -79.3850 -79.3850 -46.2270 -46.2270 -46.2219 -46.2219
   -32.7703 -32.7703 -32.7597 -32.7597 -32.6279 -32.6279 -32.6170 -32.6170
    -6.5800  -6.5800  -5.8849  -5.8849  -5.3306  -5.3306  -5.1459  -5.1459
     5.2671   5.2671   5.3647   5.3647   6.1944   6.1944   6.2427   6.2427
     7.0822   7.0822   7.8972   7.8972   8.0266   8.0266   8.1976   8.1976
     8.4243   8.4243   9.3832   9.3832  10.5384  10.5384  11.1199  11.1199
    11.8650  11.8650  12.0726  12.0726  12.4061  12.4061  12.6182  12.6182
    13.0712  13.0712  14.2487  14.2487  16.2417  16.2417  16.9402  16.9402
    17.2485  17.2485  18.4404  18.4404  19.8811  19.8811

     occupation numbers 
     1.0000   1.0000   1.0000   1.0000   1.0000   1.0000   1.0000   1.0000
     1.0000   1.0000   1.0000   1.0000   1.0000   1.0000   1.0000   1.0000
     1.0000   1.0000   1.0000   1.0000   1.0000   1.0000   1.0000   1.0000
     1.0000   1.0000   1.0000   1.0000   1.0000   1.0000   1.0000   1.0000
     1.0000   1.0000   1.0000   1.0000   1.0000   1.0000   1.0000   1.0000
     1.0000   1.0000   1.0000   1.0000   1.0000   1.0000   1.0000   1.0000
     1.0000   1.0000   1.0000   1.0000   1.0000   1.0000   1.0000   1.0000
     1.0000   1.0000  -0.0000  -0.0000  -0.0000  -0.0000  -0.0000  -0.0000
    -0.0000  -0.0000  -0.0000  -0.0000  -0.0000  -0.0000

          k = 0.0000 0.3333 0.3166 (  5374 PWs)   bands (ev):

   -79.3849 -79.3849 -79.3844 -79.3844 -46.2299 -46.2299 -46.2257 -46.2257
   -32.7891 -32.7891 -32.7704 -32.7704 -32.6369 -32.6369 -32.6206 -32.6206
    -6.3228  -6.3228  -5.6872  -5.6872  -5.4611  -5.4611  -5.2633  -5.2633
     5.5175   5.5175   5.6316   5.6316   6.3564   6.3564   6.4629   6.4629
     6.9727   6.9727   7.3704   7.3704   7.7489   7.7489   8.2676   8.2676
     8.5569   8.5569   9.4012   9.4012  10.0946  10.0946  10.8906  10.8906
    11.6520  11.6520  12.3694  12.3694  12.5430  12.5430  12.8338  12.8338
    13.3964  13.3964  14.1426  14.1426  16.0490  16.0490  16.2140  16.2140
    17.0284  17.0284  18.3393  18.3393  20.6737  20.6737

     occupation numbers 
     1.0000   1.0000   1.0000   1.0000   1.0000   1.0000   1.0000   1.0000
     1.0000   1.0000   1.0000   1.0000   1.0000   1.0000   1.0000   1.0000
     1.0000   1.0000   1.0000   1.0000   1.0000   1.0000   1.0000   1.0000
     1.0000   1.0000   1.0000   1.0000   1.0000   1.0000   1.0000   1.0000
     1.0000   1.0000   1.0000   1.0000   1.0000   1.0000   1.0000   1.0000
     1.0000   1.0000   1.0000   1.0000   1.0000   1.0000   1.0000   1.0000
     1.0000   1.0000   1.0000   1.0000   1.0000   1.0000   1.0000   1.0000
     1.0000   1.0000  -0.0073  -0.0073  -0.0000  -0.0000  -0.0000  -0.0000
    -0.0000  -0.0000  -0.0000  -0.0000  -0.0000  -0.0000

          k = 0.0000 0.3333 0.4749 (  5365 PWs)   bands (ev):

   -79.3840 -79.3840 -79.3837 -79.3837 -46.2331 -46.2331 -46.2300 -46.2300
   -32.8117 -32.8117 -32.7874 -32.7874 -32.6417 -32.6417 -32.6235 -32.6235
    -6.0283  -6.0283  -5.6414  -5.6414  -5.4684  -5.4684  -5.3260  -5.3260
     5.7339   5.7339   5.8308   5.8308   6.1158   6.1158   6.4728   6.4728
     6.9391   6.9391   7.2102   7.2102   8.0460   8.0460   8.6147   8.6147
     8.9365   8.9365   9.1624   9.1624   9.6924   9.6924  10.7641  10.7641
    11.3163  11.3163  12.2354  12.2354  12.3349  12.3349  12.7760  12.7760
    13.8129  13.8129  14.2520  14.2520  15.4337  15.4337  15.6532  15.6532
    17.4272  17.4272  18.2385  18.2385  21.6402  21.6402

     occupation numbers 
     1.0000   1.0000   1.0000   1.0000   1.0000   1.0000   1.0000   1.0000
     1.0000   1.0000   1.0000   1.0000   1.0000   1.0000   1.0000   1.0000
     1.0000   1.0000   1.0000   1.0000   1.0000   1.0000   1.0000   1.0000
     1.0000   1.0000   1.0000   1.0000   1.0000   1.0000   1.0000   1.0000
     1.0000   1.0000   1.0000   1.0000   1.0000   1.0000   1.0000   1.0000
     1.0000   1.0000   1.0000   1.0000   1.0000   1.0000   1.0000   1.0000
     1.0000   1.0000   1.0000   1.0000   1.0000   1.0000   1.0000   1.0000
     1.0002   1.0002  -0.0000  -0.0000  -0.0000  -0.0000  -0.0000  -0.0000
    -0.0000  -0.0000  -0.0000  -0.0000  -0.0000  -0.0000

          k = 0.0000 0.3333 0.6332 (  5367 PWs)   bands (ev):

   -79.3834 -79.3834 -79.3833 -79.3833 -46.2350 -46.2350 -46.2331 -46.2331
   -32.8271 -32.8271 -32.8006 -32.8006 -32.6425 -32.6425 -32.6249 -32.6249
    -5.8525  -5.8525  -5.7596  -5.7596  -5.4011  -5.4011  -5.2528  -5.2528
     5.6007   5.6007   5.6760   5.6760   6.0840   6.0840   6.2225   6.2225
     7.4526   7.4526   7.9271   7.9271   8.0292   8.0292   8.6103   8.6103
     9.1380   9.1380   9.1943   9.1943   9.6249   9.6249  10.1507  10.1507
    11.5774  11.5774  11.9223  11.9223  11.9763  11.9763  12.4481  12.4481
    14.0869  14.0869  14.4450  14.4450  15.1613  15.1613  15.2838  15.2838
    17.8175  17.8175  18.1318  18.1318  22.6121  22.6122

     occupation numbers 
     1.0000   1.0000   1.0000   1.0000   1.0000   1.0000   1.0000   1.0000
     1.0000   1.0000   1.0000   1.0000   1.0000   1.0000   1.0000   1.0000
     1.0000   1.0000   1.0000   1.0000   1.0000   1.0000   1.0000   1.0000
     1.0000   1.0000   1.0000   1.0000   1.0000   1.0000   1.0000   1.0000
     1.0000   1.0000   1.0000   1.0000   1.0000   1.0000   1.0000   1.0000
     1.0000   1.0000   1.0000   1.0000   1.0000   1.0000   1.0000   1.0000
     1.0000   1.0000   1.0000   1.0000   1.0000   1.0000   1.0000   1.0000
    -0.0354  -0.0354  -0.0000  -0.0000  -0.0000  -0.0000  -0.0000  -0.0000
    -0.0000  -0.0000  -0.0000  -0.0000  -0.0000  -0.0000

          k = 0.3333 0.3333 0.0000 (  5393 PWs)   bands (ev):

   -79.3858 -79.3858 -79.3854 -79.3854 -46.2245 -46.2245 -46.2219 -46.2219
   -32.7626 -32.7626 -32.7592 -32.7592 -32.6206 -32.6206 -32.6164 -32.6164
    -6.5457  -6.5457  -6.1834  -6.1834  -5.2307  -5.2307  -5.0005  -5.0005
     4.4014   4.4014   5.1947   5.1947   6.0314   6.0314   6.1532   6.1532
     7.5217   7.5217   7.9220   7.9220   8.8203   8.8203   8.8899   8.8899
     9.6114   9.6114   9.6477   9.6477   9.7778   9.7778  10.7144  10.7144
    11.1711  11.1711  11.6666  11.6666  12.0471  12.0471  12.3457  12.3457
    13.5940  13.5940  14.2248  14.2248  15.9631  15.9631  17.2671  17.2671
    17.5247  17.5247  17.9750  17.9750  20.9121  20.9121

     occupation numbers 
     1.0000   1.0000   1.0000   1.0000   1.0000   1.0000   1.0000   1.0000
     1.0000   1.0000   1.0000   1.0000   1.0000   1.0000   1.0000   1.0000
     1.0000   1.0000   1.0000   1.0000   1.0000   1.0000   1.0000   1.0000
     1.0000   1.0000   1.0000   1.0000   1.0000   1.0000   1.0000   1.0000
     1.0000   1.0000   1.0000   1.0000   1.0000   1.0000   1.0000   1.0000
     1.0000   1.0000   1.0000   1.0000   1.0000   1.0000   1.0000   1.0000
     1.0000   1.0000   1.0000   1.0000   1.0000   1.0000   1.0000   1.0000
     1.0000   1.0000  -0.0000  -0.0000  -0.0000  -0.0000  -0.0000  -0.0000
    -0.0000  -0.0000  -0.0000  -0.0000  -0.0000  -0.0000

          k = 0.3333 0.3333 0.1583 (  5387 PWs)   bands (ev):

   -79.3855 -79.3855 -79.3852 -79.3852 -46.2258 -46.2258 -46.2232 -46.2232
   -32.7696 -32.7696 -32.7621 -32.7621 -32.6252 -32.6252 -32.6186 -32.6186
    -6.4512  -6.4512  -6.0995  -6.0995  -5.2805  -5.2805  -5.0590  -5.0590
     4.5339   4.5339   5.3121   5.3121   6.0321   6.0321   6.1540   6.1540
     7.6874   7.6874   8.1238   8.1238   8.2484   8.2484   8.8977   8.8977
     9.0563   9.0563   9.8003   9.8003   9.9394   9.9394  10.2420  10.2420
    11.4804  11.4804  11.8959  11.8959  12.1968  12.1968  12.5636  12.5636
    13.5447  13.5447  14.1064  14.1064  16.1419  16.1419  16.9705  16.9705
    17.4282  17.4282  17.7716  17.7716  21.1355  21.1355

     occupation numbers 
     1.0000   1.0000   1.0000   1.0000   1.0000   1.0000   1.0000   1.0000
     1.0000   1.0000   1.0000   1.0000   1.0000   1.0000   1.0000   1.0000
     1.0000   1.0000   1.0000   1.0000   1.0000   1.0000   1.0000   1.0000
     1.0000   1.0000   1.0000   1.0000   1.0000   1.0000   1.0000   1.0000
     1.0000   1.0000   1.0000   1.0000   1.0000   1.0000   1.0000   1.0000
     1.0000   1.0000   1.0000   1.0000   1.0000   1.0000   1.0000   1.0000
     1.0000   1.0000   1.0000   1.0000   1.0000   1.0000   1.0000   1.0000
     1.0000   1.0000  -0.0278  -0.0278  -0.0000  -0.0000  -0.0000  -0.0000
    -0.0000  -0.0000  -0.0000  -0.0000  -0.0000  -0.0000

          k = 0.3333 0.3333 0.3166 (  5369 PWs)   bands (ev):

   -79.3848 -79.3848 -79.3845 -79.3845 -46.2289 -46.2289 -46.2267 -46.2267
   -32.7869 -32.7869 -32.7737 -32.7737 -32.6336 -32.6336 -32.6233 -32.6233
    -6.2053  -6.2053  -5.8932  -5.8932  -5.3941  -5.3941  -5.2020  -5.2020
     4.8959   4.8959   5.5700   5.5700   6.0798   6.0798   6.2663   6.2663
     7.2911   7.2911   8.0207   8.0207   8.1291   8.1291   8.5581   8.5581
     9.0913   9.0913   9.5092   9.5092   9.7762   9.7762  10.2934  10.2934
    11.8025  11.8025  12.0792  12.0792  12.5115  12.5115  12.7470  12.7470
    13.5157  13.5157  13.8678  13.8678  16.1439  16.1439  16.5979  16.5979
    17.0255  17.0255  17.7419  17.7419  21.6089  21.6089

     occupation numbers 
     1.0000   1.0000   1.0000   1.0000   1.0000   1.0000   1.0000   1.0000
     1.0000   1.0000   1.0000   1.0000   1.0000   1.0000   1.0000   1.0000
     1.0000   1.0000   1.0000   1.0000   1.0000   1.0000   1.0000   1.0000
     1.0000   1.0000   1.0000   1.0000   1.0000   1.0000   1.0000   1.0000
     1.0000   1.0000   1.0000   1.0000   1.0000   1.0000   1.0000   1.0000
     1.0000   1.0000   1.0000   1.0000   1.0000   1.0000   1.0000   1.0000
     1.0000   1.0000   1.0000   1.0000   1.0000   1.0000   1.0000   1.0000
     1.0000   1.0000   1.0077   1.0077  -0.0000  -0.0000  -0.0000  -0.0000
    -0.0000  -0.0000  -0.0000  -0.0000  -0.0000  -0.0000

          k = 0.3333 0.3333 0.4749 (  5354 PWs)   bands (ev):

   -79.3839 -79.3839 -79.3838 -79.3838 -46.2324 -46.2324 -46.2307 -46.2307
   -32.8084 -32.8084 -32.7912 -32.7912 -32.6387 -32.6387 -32.6266 -32.6266
    -5.9179  -5.9179  -5.7229  -5.7229  -5.4560  -5.4560  -5.3411  -5.3411
     5.3710   5.3710   5.7195   5.7195   6.1689   6.1689   6.3036   6.3036
     6.8330   6.8330   7.3766   7.3766   8.4045   8.4045   8.6228   8.6228
     8.9946   8.9946   9.5134   9.5134   9.8138   9.8138  10.6581  10.6581
    11.7107  11.7107  12.0314  12.0314  12.3971  12.3971  12.9941  12.9941
    13.2639  13.2639  14.0223  14.0223  15.5483  15.5483  16.3573  16.3573
    17.0135  17.0135  17.8603  17.8603  22.1785  22.1785

     occupation numbers 
     1.0000   1.0000   1.0000   1.0000   1.0000   1.0000   1.0000   1.0000
     1.0000   1.0000   1.0000   1.0000   1.0000   1.0000   1.0000   1.0000
     1.0000   1.0000   1.0000   1.0000   1.0000   1.0000   1.0000   1.0000
     1.0000   1.0000   1.0000   1.0000   1.0000   1.0000   1.0000   1.0000
     1.0000   1.0000   1.0000   1.0000   1.0000   1.0000   1.0000   1.0000
     1.0000   1.0000   1.0000   1.0000   1.0000   1.0000   1.0000   1.0000
     1.0000   1.0000   1.0000   1.0000   1.0000   1.0000   1.0000   1.0000
     1.0000   1.0000   0.2874   0.2874  -0.0000  -0.0000  -0.0000  -0.0000
    -0.0000  -0.0000  -0.0000  -0.0000  -0.0000  -0.0000

          k = 0.3333 0.3333 0.6332 (  5362 PWs)   bands (ev):

   -79.3834 -79.3834 -79.3833 -79.3833 -46.2347 -46.2347 -46.2334 -46.2334
   -32.8233 -32.8233 -32.8045 -32.8045 -32.6401 -32.6401 -32.6278 -32.6278
    -5.7900  -5.7900  -5.6567  -5.6567  -5.4915  -5.4915  -5.3111  -5.3111
     5.5543   5.5543   5.8083   5.8083   6.0853   6.0853   6.3478   6.3478
     6.5332   6.5332   7.6198   7.6198   8.2452   8.2452   8.3924   8.3924
     9.2742   9.2742   9.6755   9.6755  10.0075  10.0075  10.7667  10.7667
    11.5028  11.5028  11.9462  11.9462  12.1252  12.1252  12.8389  12.8389
    13.3402  13.3402  14.2432  14.2432  15.2083  15.2083  16.1176  16.1176
    17.0424  17.0424  17.9849  17.9849  22.7775  22.7775

     occupation numbers 
     1.0000   1.0000   1.0000   1.0000   1.0000   1.0000   1.0000   1.0000
     1.0000   1.0000   1.0000   1.0000   1.0000   1.0000   1.0000   1.0000
     1.0000   1.0000   1.0000   1.0000   1.0000   1.0000   1.0000   1.0000
     1.0000   1.0000   1.0000   1.0000   1.0000   1.0000   1.0000   1.0000
     1.0000   1.0000   1.0000   1.0000   1.0000   1.0000   1.0000   1.0000
     1.0000   1.0000   1.0000   1.0000   1.0000   1.0000   1.0000   1.0000
     1.0000   1.0000   1.0000   1.0000   1.0000   1.0000   1.0000   1.0000
     1.0000   1.0000  -0.0000  -0.0000  -0.0000  -0.0000  -0.0000  -0.0000
    -0.0000  -0.0000  -0.0000  -0.0000  -0.0000  -0.0000

     the Fermi energy is    14.0046 ev

!    total energy              =    -553.08208470 Ry
     estimated scf accuracy    <          1.8E-11 Ry
     smearing contrib. (-TS)   =       0.00003344 Ry
     internal energy E=F+TS    =    -553.08211814 Ry

     The total energy is F=E-TS. E is the sum of the following terms:
     one-electron contribution =    -190.91021436 Ry
     hartree contribution      =     122.72822182 Ry
     xc contribution           =     -69.91411508 Ry
     ewald contribution        =    -414.98601052 Ry

     convergence has been achieved in  10 iterations

     Forces acting on atoms (cartesian axes, Ry/au):

     atom    1 type  2   force =     0.00000000    0.00000000   -0.00000000
     atom    2 type  2   force =     0.00000000    0.00000000    0.00000000
     atom    3 type  1   force =    -0.00042428    0.00042428   -0.00000000
     atom    4 type  1   force =     0.00042428    0.00042428    0.00000000
     atom    5 type  1   force =    -0.00042428   -0.00042428    0.00000000
     atom    6 type  1   force =     0.00042428   -0.00042428   -0.00000000
     The non-local contrib.  to forces
     atom    1 type  2   force =     0.00000000    0.00000000    0.00000000
     atom    2 type  2   force =     0.00000000    0.00000000    0.00000000
     atom    3 type  1   force =    -0.05405268    0.05405268    0.00000000
     atom    4 type  1   force =     0.05405268    0.05405268   -0.00000000
     atom    5 type  1   force =    -0.05405268   -0.05405268   -0.00000000
     atom    6 type  1   force =     0.05405268   -0.05405268    0.00000000
     The ionic contribution  to forces
     atom    1 type  2   force =    -0.00000000   -0.00000000    0.00000000
     atom    2 type  2   force =     0.00000000    0.00000000   -0.00000000
     atom    3 type  1   force =     1.42937233   -1.42937233    0.00000000
     atom    4 type  1   force =    -1.42937233   -1.42937233   -0.00000000
     atom    5 type  1   force =     1.42937233    1.42937233   -0.00000000
     atom    6 type  1   force =    -1.42937233    1.42937233    0.00000000
     The local contribution  to forces
     atom    1 type  2   force =     0.00000000   -0.00000000   -0.00000000
     atom    2 type  2   force =     0.00000000    0.00000000    0.00000000
     atom    3 type  1   force =    -1.37574401    1.37574401    0.00000000
     atom    4 type  1   force =     1.37574401    1.37574401   -0.00000000
     atom    5 type  1   force =    -1.37574401   -1.37574401   -0.00000000
     atom    6 type  1   force =     1.37574401   -1.37574401    0.00000000
     The core correction contribution to forces
     atom    1 type  2   force =     0.00000000    0.00000000    0.00000000
     atom    2 type  2   force =     0.00000000    0.00000000    0.00000000
     atom    3 type  1   force =     0.00000000    0.00000000    0.00000000
     atom    4 type  1   force =     0.00000000    0.00000000    0.00000000
     atom    5 type  1   force =     0.00000000    0.00000000    0.00000000
     atom    6 type  1   force =     0.00000000    0.00000000    0.00000000
     The Hubbard contrib.    to forces
     atom    1 type  2   force =     0.00000000    0.00000000    0.00000000
     atom    2 type  2   force =     0.00000000    0.00000000    0.00000000
     atom    3 type  1   force =     0.00000000    0.00000000    0.00000000
     atom    4 type  1   force =     0.00000000    0.00000000    0.00000000
     atom    5 type  1   force =     0.00000000    0.00000000    0.00000000
     atom    6 type  1   force =     0.00000000    0.00000000    0.00000000
     The SCF correction term to forces
     atom    1 type  2   force =     0.00000000    0.00000000    0.00000000
     atom    2 type  2   force =     0.00000000    0.00000000    0.00000000
     atom    3 type  1   force =     0.00000008   -0.00000008   -0.00000000
     atom    4 type  1   force =    -0.00000008   -0.00000008   -0.00000000
     atom    5 type  1   force =     0.00000008    0.00000008   -0.00000000
     atom    6 type  1   force =    -0.00000008    0.00000008   -0.00000000

     Total force =     0.001200     Total SCF correction =     0.000000


     Computing stress (Cartesian axis) and pressure

          total   stress  (Ry/bohr**3)                   (kbar)     P=      -21.96
  -0.00012550   0.00000000   0.00000000          -18.46        0.00        0.00
   0.00000000  -0.00012550   0.00000000            0.00      -18.46        0.00
   0.00000000   0.00000000  -0.00019675            0.00        0.00      -28.94

     kinetic stress (kbar)  48456.13      0.00      0.00
                                0.00  48456.13      0.00
                                0.00      0.00  47519.02

     local   stress (kbar) -12687.31     -0.00      0.00
                               -0.00 -12687.31      0.00
                                0.00      0.00 -44397.17

     nonloc. stress (kbar)  14526.80      0.00      0.00
                                0.00  14526.80      0.00
                                0.00      0.00  14741.36

     hartree stress (kbar)   9610.27     -0.00     -0.00
                               -0.00   9610.27     -0.00
                               -0.00     -0.00  21378.70

     exc-cor stress (kbar)  -7288.14     -0.00      0.00
                               -0.00  -7288.14     -0.00
                                0.00     -0.00  -7263.40

     corecor stress (kbar)      0.00      0.00      0.00
                                0.00      0.00      0.00
                                0.00      0.00      0.00

     ewald   stress (kbar) -52636.21      0.00     -0.00
                                0.00 -52636.21     -0.00
                               -0.00     -0.00 -32007.45

     hubbard stress (kbar)      0.00      0.00      0.00
                                0.00      0.00      0.00
                                0.00      0.00      0.00

     DFT-D   stress (kbar)      0.00      0.00      0.00
                                0.00      0.00      0.00
                                0.00      0.00      0.00

     XDM     stress (kbar)      0.00      0.00      0.00
                                0.00      0.00      0.00
                                0.00      0.00      0.00

     dft-nl  stress (kbar)      0.00      0.00      0.00
                                0.00      0.00      0.00
                                0.00      0.00      0.00

     TS-vdW  stress (kbar)      0.00      0.00      0.00
                                0.00      0.00      0.00
                                0.00      0.00      0.00


                                0.00      0.00      0.00
                                0.00      0.00      0.00


                                0.00      0.00      0.00


     Writing all to output data dir tmp/espresso.save/
 
     init_run     :      1.55s CPU      0.82s WALL (       1 calls)
     electrons    :     52.86s CPU     27.10s WALL (       1 calls)
     forces       :      2.62s CPU      1.35s WALL (       1 calls)
     stress       :      3.88s CPU      1.97s WALL (       1 calls)

     Called by init_run:
     wfcinit      :      1.48s CPU      0.77s WALL (       1 calls)
     wfcinit:atom :      0.00s CPU      0.00s WALL (      15 calls)
     wfcinit:wfcr :      1.44s CPU      0.74s WALL (      15 calls)
     potinit      :      0.02s CPU      0.01s WALL (       1 calls)
     hinit0       :      0.04s CPU      0.03s WALL (       1 calls)

     Called by electrons:
     c_bands      :     48.09s CPU     24.63s WALL (      10 calls)
     sum_band     :      4.59s CPU      2.35s WALL (      10 calls)
     v_of_rho     :      0.05s CPU      0.03s WALL (      11 calls)
     v_h          :      0.00s CPU      0.00s WALL (      11 calls)
     v_xc         :      0.04s CPU      0.02s WALL (      11 calls)
     mix_rho      :      0.07s CPU      0.04s WALL (      10 calls)

     Called by c_bands:
     init_us_2    :      0.15s CPU      0.08s WALL (     345 calls)
     init_us_2:cp :      0.14s CPU      0.08s WALL (     345 calls)
     cegterg      :     44.51s CPU     22.79s WALL (     150 calls)

     Called by sum_band:
     sum_band:wei :      0.04s CPU      0.02s WALL (      10 calls)
     sum_band:loo :      4.53s CPU      2.32s WALL (      10 calls)
     sum_band:buf :      0.03s CPU      0.01s WALL (     150 calls)
     sum_band:ini :      0.05s CPU      0.02s WALL (     150 calls)

     Called by *egterg:
     cdiaghg      :      6.19s CPU      3.15s WALL (     468 calls)
     cegterg:over :      2.93s CPU      1.49s WALL (     318 calls)
     cegterg:upda :      2.30s CPU      1.17s WALL (     318 calls)
     cegterg:last :      3.89s CPU      1.97s WALL (     300 calls)
     cdiaghg:chol :      0.28s CPU      0.14s WALL (     468 calls)
     cdiaghg:inve :      0.04s CPU      0.02s WALL (     468 calls)
     cdiaghg:para :      0.64s CPU      0.33s WALL (     936 calls)
     h_psi        :     29.36s CPU     15.10s WALL (     483 calls)
     g_psi        :      0.04s CPU      0.02s WALL (     318 calls)

     Called by h_psi:
     h_psi:calbec :      3.63s CPU      1.91s WALL (     483 calls)
     vloc_psi     :     20.73s CPU     10.64s WALL (     483 calls)
     add_vuspsi   :      4.95s CPU      2.52s WALL (     483 calls)

     General routines
     calbec       :      4.31s CPU      2.27s WALL (     558 calls)
     fft          :      0.06s CPU      0.03s WALL (     150 calls)
     ffts         :      0.01s CPU      0.01s WALL (      40 calls)
     fftw         :     23.72s CPU     12.17s WALL (  128780 calls)
 
     Parallel routines
 
     PWSCF        :   1m 2.97s CPU     33.38s WALL

 
   This run was terminated on:  11:13:49  10Apr2022            

=------------------------------------------------------------------------------=
   JOB DONE.
=------------------------------------------------------------------------------=
