
     Program PWSCF v.7.0 starts on 10Apr2022 at 10:56: 8 

     This program is part of the open-source Quantum ESPRESSO suite
     for quantum simulation of materials; please cite
         "P. Giannozzi et al., J. Phys.:Condens. Matter 21 395502 (2009);
         "P. Giannozzi et al., J. Phys.:Condens. Matter 29 465901 (2017);
         "P. Giannozzi et al., J. Chem. Phys. 152 154105 (2020);
          URL http://www.quantum-espresso.org", 
     in publications or presentations arising from this work. More details at
     http://www.quantum-espresso.org/quote

     Parallel version (MPI & OpenMP), running on      64 processor cores
     Number of MPI processes:                32
     Threads/MPI process:                     2

     MPI processes distributed on     1 nodes
     R & G space division:  proc/nbgrp/npool/nimage =      32
     230658 MiB available memory on the printing compute node when the environment starts
 
     Reading input from kpoints_668.pwi
Warning: card &CELL ignored
Warning: card / ignored

     Current dimensions of program PWSCF are:
     Max number of different atomic species (ntypx) = 10
     Max number of k-points (npk) =  40000
     Max angular momentum in pseudopotentials (lmaxx) =  4

     Subspace diagonalization in iterative solution of the eigenvalue problem:
     one sub-group per band group will be used
     scalapack distributed-memory algorithm (size of sub-group:  5*  5 procs)

 
     Parallelization info
     --------------------
     sticks:   dense  smooth     PW     G-vecs:    dense   smooth      PW
     Min          58      58     17                 1342     1342     211
     Max          59      59     18                 1345     1345     214
     Sum        1885    1885    553                42999    42999    6811
 
     Using Slab Decomposition
 

     Title: 
     IrO2 Unit Cell                                                             


     bravais-lattice index     =            6
     lattice parameter (alat)  =       8.5888  a.u.
     unit-cell volume          =     444.6868 (a.u.)^3
     number of atoms/cell      =            6
     number of atomic types    =            2
     number of electrons       =        58.00
     number of Kohn-Sham states=           70
     kinetic-energy cutoff     =      80.0000  Ry
     charge density cutoff     =     320.0000  Ry
     scf convergence threshold =      1.0E-09
     mixing beta               =       0.7000
     number of iterations used =            8  plain     mixing
     Exchange-correlation= PBE
                           (   1   4   3   4   0   0   0)
     Non magnetic calculation with spin-orbit


     celldm(1)=   8.588800  celldm(2)=   0.000000  celldm(3)=   0.701870
     celldm(4)=   0.000000  celldm(5)=   0.000000  celldm(6)=   0.000000

     crystal axes: (cart. coord. in units of alat)
               a(1) = (   1.000000   0.000000   0.000000 )  
               a(2) = (   0.000000   1.000000   0.000000 )  
               a(3) = (   0.000000   0.000000   0.701870 )  

     reciprocal axes: (cart. coord. in units 2 pi/alat)
               b(1) = (  1.000000  0.000000  0.000000 )  
               b(2) = (  0.000000  1.000000  0.000000 )  
               b(3) = (  0.000000  0.000000  1.424765 )  


     PseudoPot. # 1 for O  read from file:
     ../../XX_PSEUDO/O_ONCV_PBE_fr.upf
     MD5 check sum: 59c925217d3b58c6d762355590b68b09
     Pseudo is Norm-conserving, Zval =  6.0
     Generated using ONCVPSP code by D. R. Hamann
     Using radial grid of  936 points,  6 beta functions with: 
                l(1) =   0
                l(2) =   0
                l(3) =   1
                l(4) =   1
                l(5) =   1
                l(6) =   1

     PseudoPot. # 2 for Ir read from file:
     ../../XX_PSEUDO/Ir_ONCV_PBE_fr.upf
     MD5 check sum: 924e909c4146afa09f62ee3401806954
     Pseudo is Norm-conserving, Zval = 17.0
     Generated using ONCVPSP code by D. R. Hamann
     Using radial grid of 1310 points, 14 beta functions with: 
                l(1) =   0
                l(2) =   0
                l(3) =   1
                l(4) =   1
                l(5) =   1
                l(6) =   1
                l(7) =   2
                l(8) =   2
                l(9) =   2
               l(10) =   2
               l(11) =   3
               l(12) =   3
               l(13) =   3
               l(14) =   3

     atomic species   valence    mass     pseudopotential
        O              6.00    15.99900     O ( 1.00)
        Ir            17.00   192.21700     Ir( 1.00)

     16 Sym. Ops., with inversion, found ( 8 have fractional translation)


                                    s                        frac. trans.

      isym =  1     identity                                     

 cryst.   s( 1) = (     1          0          0      )
                  (     0          1          0      )
                  (     0          0          1      )

 cart.    s( 1) = (  1.0000000  0.0000000  0.0000000 )
                  (  0.0000000  1.0000000  0.0000000 )
                  (  0.0000000  0.0000000  1.0000000 )


      isym =  2     180 deg rotation - cart. axis [0,0,1]        

 cryst.   s( 2) = (    -1          0          0      )
                  (     0         -1          0      )
                  (     0          0          1      )

 cart.    s( 2) = ( -1.0000000  0.0000000  0.0000000 )
                  (  0.0000000 -1.0000000  0.0000000 )
                  (  0.0000000  0.0000000  1.0000000 )


      isym =  3     180 deg rotation - cart. axis [0,1,0]        

 cryst.   s( 3) = (    -1          0          0      )    f =(  0.5000000 )
                  (     0          1          0      )       ( -0.5000000 )
                  (     0          0         -1      )       (  0.5000000 )

 cart.    s( 3) = ( -1.0000000  0.0000000  0.0000000 )    f =(  0.5000000 )
                  (  0.0000000  1.0000000  0.0000000 )       ( -0.5000000 )
                  (  0.0000000  0.0000000 -1.0000000 )       (  0.3509351 )


      isym =  4     180 deg rotation - cart. axis [1,0,0]        

 cryst.   s( 4) = (     1          0          0      )    f =( -0.5000000 )
                  (     0         -1          0      )       (  0.5000000 )
                  (     0          0         -1      )       (  0.5000000 )

 cart.    s( 4) = (  1.0000000  0.0000000  0.0000000 )    f =( -0.5000000 )
                  (  0.0000000 -1.0000000  0.0000000 )       (  0.5000000 )
                  (  0.0000000  0.0000000 -1.0000000 )       (  0.3509351 )


      isym =  5     180 deg rotation - cart. axis [1,1,0]        

 cryst.   s( 5) = (     0          1          0      )
                  (     1          0          0      )
                  (     0          0         -1      )

 cart.    s( 5) = (  0.0000000  1.0000000  0.0000000 )
                  (  1.0000000  0.0000000  0.0000000 )
                  (  0.0000000  0.0000000 -1.0000000 )


      isym =  6     180 deg rotation - cart. axis [1,-1,0]       

 cryst.   s( 6) = (     0         -1          0      )
                  (    -1          0          0      )
                  (     0          0         -1      )

 cart.    s( 6) = (  0.0000000 -1.0000000  0.0000000 )
                  ( -1.0000000  0.0000000  0.0000000 )
                  (  0.0000000  0.0000000 -1.0000000 )


      isym =  7      90 deg rotation - cart. axis [0,0,-1]       

 cryst.   s( 7) = (     0         -1          0      )    f =( -0.5000000 )
                  (     1          0          0      )       (  0.5000000 )
                  (     0          0          1      )       ( -0.5000000 )

 cart.    s( 7) = (  0.0000000  1.0000000  0.0000000 )    f =( -0.5000000 )
                  ( -1.0000000  0.0000000  0.0000000 )       (  0.5000000 )
                  (  0.0000000  0.0000000  1.0000000 )       ( -0.3509351 )


      isym =  8      90 deg rotation - cart. axis [0,0,1]        

 cryst.   s( 8) = (     0          1          0      )    f =(  0.5000000 )
                  (    -1          0          0      )       ( -0.5000000 )
                  (     0          0          1      )       ( -0.5000000 )

 cart.    s( 8) = (  0.0000000 -1.0000000  0.0000000 )    f =(  0.5000000 )
                  (  1.0000000  0.0000000  0.0000000 )       ( -0.5000000 )
                  (  0.0000000  0.0000000  1.0000000 )       ( -0.3509351 )


      isym =  9     inversion                                    

 cryst.   s( 9) = (    -1          0          0      )
                  (     0         -1          0      )
                  (     0          0         -1      )

 cart.    s( 9) = ( -1.0000000  0.0000000  0.0000000 )
                  (  0.0000000 -1.0000000  0.0000000 )
                  (  0.0000000  0.0000000 -1.0000000 )


      isym = 10     inv. 180 deg rotation - cart. axis [0,0,1]   

 cryst.   s(10) = (     1          0          0      )
                  (     0          1          0      )
                  (     0          0         -1      )

 cart.    s(10) = (  1.0000000  0.0000000  0.0000000 )
                  (  0.0000000  1.0000000  0.0000000 )
                  (  0.0000000  0.0000000 -1.0000000 )


      isym = 11     inv. 180 deg rotation - cart. axis [0,1,0]   

 cryst.   s(11) = (     1          0          0      )    f =( -0.5000000 )
                  (     0         -1          0      )       (  0.5000000 )
                  (     0          0          1      )       ( -0.5000000 )

 cart.    s(11) = (  1.0000000  0.0000000  0.0000000 )    f =( -0.5000000 )
                  (  0.0000000 -1.0000000  0.0000000 )       (  0.5000000 )
                  (  0.0000000  0.0000000  1.0000000 )       ( -0.3509351 )


      isym = 12     inv. 180 deg rotation - cart. axis [1,0,0]   

 cryst.   s(12) = (    -1          0          0      )    f =(  0.5000000 )
                  (     0          1          0      )       ( -0.5000000 )
                  (     0          0          1      )       ( -0.5000000 )

 cart.    s(12) = ( -1.0000000  0.0000000  0.0000000 )    f =(  0.5000000 )
                  (  0.0000000  1.0000000  0.0000000 )       ( -0.5000000 )
                  (  0.0000000  0.0000000  1.0000000 )       ( -0.3509351 )


      isym = 13     inv. 180 deg rotation - cart. axis [1,1,0]   

 cryst.   s(13) = (     0         -1          0      )
                  (    -1          0          0      )
                  (     0          0          1      )

 cart.    s(13) = (  0.0000000 -1.0000000  0.0000000 )
                  ( -1.0000000  0.0000000  0.0000000 )
                  (  0.0000000  0.0000000  1.0000000 )


      isym = 14     inv. 180 deg rotation - cart. axis [1,-1,0]  

 cryst.   s(14) = (     0          1          0      )
                  (     1          0          0      )
                  (     0          0          1      )

 cart.    s(14) = (  0.0000000  1.0000000  0.0000000 )
                  (  1.0000000  0.0000000  0.0000000 )
                  (  0.0000000  0.0000000  1.0000000 )


      isym = 15     inv.  90 deg rotation - cart. axis [0,0,-1]  

 cryst.   s(15) = (     0          1          0      )    f =(  0.5000000 )
                  (    -1          0          0      )       ( -0.5000000 )
                  (     0          0         -1      )       (  0.5000000 )

 cart.    s(15) = (  0.0000000 -1.0000000  0.0000000 )    f =(  0.5000000 )
                  (  1.0000000  0.0000000  0.0000000 )       ( -0.5000000 )
                  (  0.0000000  0.0000000 -1.0000000 )       (  0.3509351 )


      isym = 16     inv.  90 deg rotation - cart. axis [0,0,1]   

 cryst.   s(16) = (     0         -1          0      )    f =( -0.5000000 )
                  (     1          0          0      )       (  0.5000000 )
                  (     0          0         -1      )       (  0.5000000 )

 cart.    s(16) = (  0.0000000  1.0000000  0.0000000 )    f =( -0.5000000 )
                  ( -1.0000000  0.0000000  0.0000000 )       (  0.5000000 )
                  (  0.0000000  0.0000000 -1.0000000 )       (  0.3509351 )


     double point group D_4h(4/mmm)
     there are 14 classes and  4 irreducible representations
     the character table:

       E     -E    2C4   -2C4   C2    2C2' 2C2'' i     -i    2S4   -2S4   s_h 
                               -C2   -2C2' -2C2'                         -s_h 
G_6+   2.00 -2.00  1.41 -1.41  0.00  0.00  0.00  2.00 -2.00  1.41 -1.41  0.00
G_7+   2.00 -2.00 -1.41  1.41  0.00  0.00  0.00  2.00 -2.00 -1.41  1.41  0.00
G_6-   2.00 -2.00  1.41 -1.41  0.00  0.00  0.00 -2.00  2.00 -1.41  1.41  0.00
G_7-   2.00 -2.00 -1.41  1.41  0.00  0.00  0.00 -2.00  2.00  1.41 -1.41  0.00

        2s_v  2s_d
       -2s_v -2s_d
G_6+   0.00  0.00
G_7+   0.00  0.00
G_6-   0.00  0.00
G_7-   0.00  0.00

     the symmetry operations in each class and the name of the first element:

     E             1
          identity                                               
     -E           -1
          identity E                                             
     2C4           7    8
           90 deg rotation - cart. axis [0,0,-1]                 
     -2C4         -7   -8
           90 deg rotation - cart. axis [0,0,-1] E               
      C2  -C2      2   -2
          180 deg rotation - cart. axis [0,0,1]                  
      2C2'-2C2'    3   -3    4   -4
          180 deg rotation - cart. axis [0,1,0]                  
     2C2''-2C2'    5   -5   -6    6
          180 deg rotation - cart. axis [1,1,0]                  
     i             9
          inversion                                              
     -i           -9
          inversion E                                            
     2S4          15   16
          inv.  90 deg rotation - cart. axis [0,0,-1]            
     -2S4        -15  -16
          inv.  90 deg rotation - cart. axis [0,0,-1] E          
      s_h -s_h    10  -10
          inv. 180 deg rotation - cart. axis [0,0,1]             
      2s_v-2s_v   11  -11   12  -12
          inv. 180 deg rotation - cart. axis [0,1,0]             
      2s_d-2s_d   13  -13  -14   14
          inv. 180 deg rotation - cart. axis [1,1,0]             

   Cartesian axes

     site n.     atom                  positions (alat units)
         1           Ir  tau(   1) = (   0.0000000   0.0000000   0.0000000  )
         2           Ir  tau(   2) = (   0.5000000   0.5000000   0.3509351  )
         3           O   tau(   3) = (   0.1916000   0.8084000   0.3509351  )
         4           O   tau(   4) = (   0.3084000   0.3084000   0.0000000  )
         5           O   tau(   5) = (   0.6916000   0.6916000   0.0000000  )
         6           O   tau(   6) = (   0.8084000   0.1916000   0.3509351  )

   Crystallographic axes

     site n.     atom                  positions (cryst. coord.)
         1           Ir  tau(   1) = (  0.0000000  0.0000000  0.0000000  )
         2           Ir  tau(   2) = (  0.5000000  0.5000000  0.5000000  )
         3           O   tau(   3) = (  0.1916000  0.8084000  0.5000000  )
         4           O   tau(   4) = (  0.3084000  0.3084000  0.0000000  )
         5           O   tau(   5) = (  0.6916000  0.6916000  0.0000000  )
         6           O   tau(   6) = (  0.8084000  0.1916000  0.5000000  )

     number of k points=    50  Methfessel-Paxton smearing, width (Ry)=  0.0050
                       cart. coord. in units 2pi/alat
        k(    1) = (   0.0000000   0.0000000   0.0000000), wk =   0.0034722
        k(    2) = (   0.0000000   0.0000000   0.1780956), wk =   0.0069444
        k(    3) = (   0.0000000   0.0000000   0.3561912), wk =   0.0069444
        k(    4) = (   0.0000000   0.0000000   0.5342868), wk =   0.0069444
        k(    5) = (   0.0000000   0.0000000  -0.7123824), wk =   0.0034722
        k(    6) = (   0.0000000   0.1666667   0.0000000), wk =   0.0138889
        k(    7) = (   0.0000000   0.1666667   0.1780956), wk =   0.0277778
        k(    8) = (   0.0000000   0.1666667   0.3561912), wk =   0.0277778
        k(    9) = (   0.0000000   0.1666667   0.5342868), wk =   0.0277778
        k(   10) = (   0.0000000   0.1666667  -0.7123824), wk =   0.0138889
        k(   11) = (   0.0000000   0.3333333   0.0000000), wk =   0.0138889
        k(   12) = (   0.0000000   0.3333333   0.1780956), wk =   0.0277778
        k(   13) = (   0.0000000   0.3333333   0.3561912), wk =   0.0277778
        k(   14) = (   0.0000000   0.3333333   0.5342868), wk =   0.0277778
        k(   15) = (   0.0000000   0.3333333  -0.7123824), wk =   0.0138889
        k(   16) = (   0.0000000  -0.5000000   0.0000000), wk =   0.0069444
        k(   17) = (   0.0000000  -0.5000000   0.1780956), wk =   0.0138889
        k(   18) = (   0.0000000  -0.5000000   0.3561912), wk =   0.0138889
        k(   19) = (   0.0000000  -0.5000000   0.5342868), wk =   0.0138889
        k(   20) = (   0.0000000  -0.5000000  -0.7123824), wk =   0.0069444
        k(   21) = (   0.1666667   0.1666667   0.0000000), wk =   0.0138889
        k(   22) = (   0.1666667   0.1666667   0.1780956), wk =   0.0277778
        k(   23) = (   0.1666667   0.1666667   0.3561912), wk =   0.0277778
        k(   24) = (   0.1666667   0.1666667   0.5342868), wk =   0.0277778
        k(   25) = (   0.1666667   0.1666667  -0.7123824), wk =   0.0138889
        k(   26) = (   0.1666667   0.3333333   0.0000000), wk =   0.0277778
        k(   27) = (   0.1666667   0.3333333   0.1780956), wk =   0.0555556
        k(   28) = (   0.1666667   0.3333333   0.3561912), wk =   0.0555556
        k(   29) = (   0.1666667   0.3333333   0.5342868), wk =   0.0555556
        k(   30) = (   0.1666667   0.3333333  -0.7123824), wk =   0.0277778
        k(   31) = (   0.1666667  -0.5000000   0.0000000), wk =   0.0138889
        k(   32) = (   0.1666667  -0.5000000   0.1780956), wk =   0.0277778
        k(   33) = (   0.1666667  -0.5000000   0.3561912), wk =   0.0277778
        k(   34) = (   0.1666667  -0.5000000   0.5342868), wk =   0.0277778
        k(   35) = (   0.1666667  -0.5000000  -0.7123824), wk =   0.0138889
        k(   36) = (   0.3333333   0.3333333   0.0000000), wk =   0.0138889
        k(   37) = (   0.3333333   0.3333333   0.1780956), wk =   0.0277778
        k(   38) = (   0.3333333   0.3333333   0.3561912), wk =   0.0277778
        k(   39) = (   0.3333333   0.3333333   0.5342868), wk =   0.0277778
        k(   40) = (   0.3333333   0.3333333  -0.7123824), wk =   0.0138889
        k(   41) = (   0.3333333  -0.5000000   0.0000000), wk =   0.0138889
        k(   42) = (   0.3333333  -0.5000000   0.1780956), wk =   0.0277778
        k(   43) = (   0.3333333  -0.5000000   0.3561912), wk =   0.0277778
        k(   44) = (   0.3333333  -0.5000000   0.5342868), wk =   0.0277778
        k(   45) = (   0.3333333  -0.5000000  -0.7123824), wk =   0.0138889
        k(   46) = (  -0.5000000  -0.5000000   0.0000000), wk =   0.0034722
        k(   47) = (  -0.5000000  -0.5000000   0.1780956), wk =   0.0069444
        k(   48) = (  -0.5000000  -0.5000000   0.3561912), wk =   0.0069444
        k(   49) = (  -0.5000000  -0.5000000   0.5342868), wk =   0.0069444
        k(   50) = (  -0.5000000  -0.5000000  -0.7123824), wk =   0.0034722

                       cryst. coord.
        k(    1) = (   0.0000000   0.0000000   0.0000000), wk =   0.0034722
        k(    2) = (   0.0000000   0.0000000   0.1250000), wk =   0.0069444
        k(    3) = (   0.0000000   0.0000000   0.2500000), wk =   0.0069444
        k(    4) = (   0.0000000   0.0000000   0.3750000), wk =   0.0069444
        k(    5) = (   0.0000000   0.0000000  -0.5000000), wk =   0.0034722
        k(    6) = (   0.0000000   0.1666667   0.0000000), wk =   0.0138889
        k(    7) = (   0.0000000   0.1666667   0.1250000), wk =   0.0277778
        k(    8) = (   0.0000000   0.1666667   0.2500000), wk =   0.0277778
        k(    9) = (   0.0000000   0.1666667   0.3750000), wk =   0.0277778
        k(   10) = (   0.0000000   0.1666667  -0.5000000), wk =   0.0138889
        k(   11) = (   0.0000000   0.3333333   0.0000000), wk =   0.0138889
        k(   12) = (   0.0000000   0.3333333   0.1250000), wk =   0.0277778
        k(   13) = (   0.0000000   0.3333333   0.2500000), wk =   0.0277778
        k(   14) = (   0.0000000   0.3333333   0.3750000), wk =   0.0277778
        k(   15) = (   0.0000000   0.3333333  -0.5000000), wk =   0.0138889
        k(   16) = (   0.0000000  -0.5000000   0.0000000), wk =   0.0069444
        k(   17) = (   0.0000000  -0.5000000   0.1250000), wk =   0.0138889
        k(   18) = (   0.0000000  -0.5000000   0.2500000), wk =   0.0138889
        k(   19) = (   0.0000000  -0.5000000   0.3750000), wk =   0.0138889
        k(   20) = (   0.0000000  -0.5000000  -0.5000000), wk =   0.0069444
        k(   21) = (   0.1666667   0.1666667   0.0000000), wk =   0.0138889
        k(   22) = (   0.1666667   0.1666667   0.1250000), wk =   0.0277778
        k(   23) = (   0.1666667   0.1666667   0.2500000), wk =   0.0277778
        k(   24) = (   0.1666667   0.1666667   0.3750000), wk =   0.0277778
        k(   25) = (   0.1666667   0.1666667  -0.5000000), wk =   0.0138889
        k(   26) = (   0.1666667   0.3333333   0.0000000), wk =   0.0277778
        k(   27) = (   0.1666667   0.3333333   0.1250000), wk =   0.0555556
        k(   28) = (   0.1666667   0.3333333   0.2500000), wk =   0.0555556
        k(   29) = (   0.1666667   0.3333333   0.3750000), wk =   0.0555556
        k(   30) = (   0.1666667   0.3333333  -0.5000000), wk =   0.0277778
        k(   31) = (   0.1666667  -0.5000000   0.0000000), wk =   0.0138889
        k(   32) = (   0.1666667  -0.5000000   0.1250000), wk =   0.0277778
        k(   33) = (   0.1666667  -0.5000000   0.2500000), wk =   0.0277778
        k(   34) = (   0.1666667  -0.5000000   0.3750000), wk =   0.0277778
        k(   35) = (   0.1666667  -0.5000000  -0.5000000), wk =   0.0138889
        k(   36) = (   0.3333333   0.3333333   0.0000000), wk =   0.0138889
        k(   37) = (   0.3333333   0.3333333   0.1250000), wk =   0.0277778
        k(   38) = (   0.3333333   0.3333333   0.2500000), wk =   0.0277778
        k(   39) = (   0.3333333   0.3333333   0.3750000), wk =   0.0277778
        k(   40) = (   0.3333333   0.3333333  -0.5000000), wk =   0.0138889
        k(   41) = (   0.3333333  -0.5000000   0.0000000), wk =   0.0138889
        k(   42) = (   0.3333333  -0.5000000   0.1250000), wk =   0.0277778
        k(   43) = (   0.3333333  -0.5000000   0.2500000), wk =   0.0277778
        k(   44) = (   0.3333333  -0.5000000   0.3750000), wk =   0.0277778
        k(   45) = (   0.3333333  -0.5000000  -0.5000000), wk =   0.0138889
        k(   46) = (  -0.5000000  -0.5000000   0.0000000), wk =   0.0034722
        k(   47) = (  -0.5000000  -0.5000000   0.1250000), wk =   0.0069444
        k(   48) = (  -0.5000000  -0.5000000   0.2500000), wk =   0.0069444
        k(   49) = (  -0.5000000  -0.5000000   0.3750000), wk =   0.0069444
        k(   50) = (  -0.5000000  -0.5000000  -0.5000000), wk =   0.0034722

     Dense  grid:    42999 G-vectors     FFT dimensions: (  50,  50,  36)

     Dynamical RAM for                 wfc:       0.36 MB

     Dynamical RAM for     wfc (w. buffer):      18.19 MB

     Dynamical RAM for           str. fact:       0.04 MB

     Dynamical RAM for           local pot:       0.00 MB

     Dynamical RAM for          nlocal pot:       0.46 MB

     Dynamical RAM for                qrad:      20.10 MB

     Dynamical RAM for          rho,v,vnew:       0.70 MB

     Dynamical RAM for               rhoin:       0.23 MB

     Dynamical RAM for            rho*nmix:       1.31 MB

     Dynamical RAM for           G-vectors:       0.09 MB

     Dynamical RAM for          h,s,v(r/c):       0.04 MB

     Dynamical RAM for          <psi|beta>:       0.38 MB

     Dynamical RAM for                 psi:       0.71 MB

     Dynamical RAM for                hpsi:       0.71 MB

     Dynamical RAM for      wfcinit/wfcrot:       0.67 MB

     Estimated static dynamical RAM per process >      40.18 MB

     Estimated max dynamical RAM per process >      43.35 MB

     Estimated total dynamical RAM >       1.35 GB

     Initial potential from superposition of free atoms

     starting charge      57.9997, renormalised to      58.0000
     Starting wfcs are   72 randomized atomic wfcs

     total cpu time spent up to now is        2.7 secs

     Self-consistent Calculation

     iteration #  1     ecut=    80.00 Ry     beta= 0.70
     Davidson diagonalization with overlap

---- Real-time Memory Report at c_bands before calling an iterative solver
            91 MiB given to the printing process from OS
             0 MiB allocation reported by mallinfo(arena+hblkhd)
        228739 MiB available memory on the node where the printing process lives
------------------
     ethr =  1.00E-02,  avg # of iterations =  2.8

     total cpu time spent up to now is       11.4 secs

     total energy              =    -552.42595830 Ry
     estimated scf accuracy    <       1.21513068 Ry

     iteration #  2     ecut=    80.00 Ry     beta= 0.70
     Davidson diagonalization with overlap

---- Real-time Memory Report at c_bands before calling an iterative solver
           100 MiB given to the printing process from OS
             0 MiB allocation reported by mallinfo(arena+hblkhd)
        228570 MiB available memory on the node where the printing process lives
------------------
     ethr =  2.10E-03,  avg # of iterations =  2.0

     total cpu time spent up to now is       20.9 secs

     total energy              =    -552.27811896 Ry
     estimated scf accuracy    <       4.29835233 Ry

     iteration #  3     ecut=    80.00 Ry     beta= 0.70
     Davidson diagonalization with overlap

---- Real-time Memory Report at c_bands before calling an iterative solver
           103 MiB given to the printing process from OS
             0 MiB allocation reported by mallinfo(arena+hblkhd)
        228526 MiB available memory on the node where the printing process lives
------------------
     ethr =  2.10E-03,  avg # of iterations =  2.0

     total cpu time spent up to now is       29.7 secs

     total energy              =    -553.07570334 Ry
     estimated scf accuracy    <       0.03350315 Ry

     iteration #  4     ecut=    80.00 Ry     beta= 0.70
     Davidson diagonalization with overlap

---- Real-time Memory Report at c_bands before calling an iterative solver
           103 MiB given to the printing process from OS
             0 MiB allocation reported by mallinfo(arena+hblkhd)
        228518 MiB available memory on the node where the printing process lives
------------------
     ethr =  5.78E-05,  avg # of iterations =  2.8

     total cpu time spent up to now is       38.8 secs

     total energy              =    -553.07932320 Ry
     estimated scf accuracy    <       0.00482594 Ry

     iteration #  5     ecut=    80.00 Ry     beta= 0.70
     Davidson diagonalization with overlap

---- Real-time Memory Report at c_bands before calling an iterative solver
           104 MiB given to the printing process from OS
             0 MiB allocation reported by mallinfo(arena+hblkhd)
        228515 MiB available memory on the node where the printing process lives
------------------
     c_bands:  2 eigenvalues not converged
     ethr =  8.32E-06,  avg # of iterations =  3.1

     total cpu time spent up to now is       47.0 secs

     total energy              =    -553.08015829 Ry
     estimated scf accuracy    <       0.00024473 Ry

     iteration #  6     ecut=    80.00 Ry     beta= 0.70
     Davidson diagonalization with overlap

---- Real-time Memory Report at c_bands before calling an iterative solver
           105 MiB given to the printing process from OS
             0 MiB allocation reported by mallinfo(arena+hblkhd)
        228493 MiB available memory on the node where the printing process lives
------------------
     c_bands:  1 eigenvalues not converged
     ethr =  4.22E-07,  avg # of iterations =  3.9

     total cpu time spent up to now is       55.5 secs

     total energy              =    -553.08018959 Ry
     estimated scf accuracy    <       0.00000954 Ry

     iteration #  7     ecut=    80.00 Ry     beta= 0.70
     Davidson diagonalization with overlap

---- Real-time Memory Report at c_bands before calling an iterative solver
           105 MiB given to the printing process from OS
             0 MiB allocation reported by mallinfo(arena+hblkhd)
        228484 MiB available memory on the node where the printing process lives
------------------
     ethr =  1.64E-08,  avg # of iterations =  2.0

     total cpu time spent up to now is       65.9 secs

     total energy              =    -553.08019276 Ry
     estimated scf accuracy    <       0.00000056 Ry

     iteration #  8     ecut=    80.00 Ry     beta= 0.70
     Davidson diagonalization with overlap

---- Real-time Memory Report at c_bands before calling an iterative solver
           108 MiB given to the printing process from OS
             0 MiB allocation reported by mallinfo(arena+hblkhd)
        228418 MiB available memory on the node where the printing process lives
------------------
     ethr =  9.58E-10,  avg # of iterations =  2.3

     total cpu time spent up to now is       73.8 secs

     total energy              =    -553.08019279 Ry
     estimated scf accuracy    <       0.00000008 Ry

     iteration #  9     ecut=    80.00 Ry     beta= 0.70
     Davidson diagonalization with overlap

---- Real-time Memory Report at c_bands before calling an iterative solver
           108 MiB given to the printing process from OS
             0 MiB allocation reported by mallinfo(arena+hblkhd)
        228427 MiB available memory on the node where the printing process lives
------------------
     ethr =  1.34E-10,  avg # of iterations =  2.2

     total cpu time spent up to now is       82.6 secs

     total energy              =    -553.08019281 Ry
     estimated scf accuracy    <          4.0E-09 Ry

     iteration # 10     ecut=    80.00 Ry     beta= 0.70
     Davidson diagonalization with overlap

---- Real-time Memory Report at c_bands before calling an iterative solver
           109 MiB given to the printing process from OS
             0 MiB allocation reported by mallinfo(arena+hblkhd)
        228420 MiB available memory on the node where the printing process lives
------------------
     ethr =  6.81E-12,  avg # of iterations =  2.5

     total cpu time spent up to now is       91.6 secs

     End of self-consistent calculation

          k = 0.0000 0.0000 0.0000 (  5409 PWs)   bands (ev):

   -79.3818 -79.3818 -79.3805 -79.3805 -46.2244 -46.2244 -46.2136 -46.2136
   -32.7637 -32.7637 -32.7539 -32.7539 -32.6198 -32.6198 -32.6045 -32.6045
    -7.0761  -7.0761  -5.9204  -5.9204  -5.0054  -5.0054  -4.8040  -4.8040
     4.2679   4.2679   4.5150   4.5150   6.0325   6.0325   6.1439   6.1439
     6.2584   6.2584   8.7844   8.7844   8.9363   8.9363   9.1938   9.1938
    10.3312  10.3312  10.9861  10.9861  10.9909  10.9909  11.0286  11.0286
    11.2069  11.2069  11.3888  11.3888  11.6440  11.6440  11.6730  11.6730
    12.0599  12.0599  14.6465  14.6465  15.0736  15.0736  17.6883  17.6883
    17.8963  17.8963  18.0454  18.0454  19.4470  19.4470

     occupation numbers 
     1.0000   1.0000   1.0000   1.0000   1.0000   1.0000   1.0000   1.0000
     1.0000   1.0000   1.0000   1.0000   1.0000   1.0000   1.0000   1.0000
     1.0000   1.0000   1.0000   1.0000   1.0000   1.0000   1.0000   1.0000
     1.0000   1.0000   1.0000   1.0000   1.0000   1.0000   1.0000   1.0000
     1.0000   1.0000   1.0000   1.0000   1.0000   1.0000   1.0000   1.0000
     1.0000   1.0000   1.0000   1.0000   1.0000   1.0000   1.0000   1.0000
     1.0000   1.0000   1.0000   1.0000   1.0000   1.0000   1.0000   1.0000
     1.0000   1.0000  -0.0000  -0.0000  -0.0000  -0.0000  -0.0000  -0.0000
    -0.0000  -0.0000  -0.0000  -0.0000  -0.0000  -0.0000

          k = 0.0000 0.0000 0.1781 (  5369 PWs)   bands (ev):

   -79.3814 -79.3814 -79.3802 -79.3802 -46.2256 -46.2256 -46.2157 -46.2157
   -32.7673 -32.7673 -32.7623 -32.7623 -32.6257 -32.6257 -32.6074 -32.6074
    -6.9348  -6.9348  -5.8475  -5.8475  -5.0713  -5.0713  -4.8923  -4.8923
     4.4739   4.4739   4.6635   4.6635   6.1553   6.1553   6.2290   6.2290
     6.4091   6.4091   8.2462   8.2462   9.0421   9.0421   9.3016   9.3016
     9.5381   9.5381  10.1203  10.1203  10.2280  10.2280  11.2954  11.2954
    11.6180  11.6180  11.6414  11.6414  11.7626  11.7626  12.3582  12.3582
    12.4489  12.4489  14.9269  14.9269  14.9747  14.9747  17.3273  17.3273
    17.6437  17.6437  18.2980  18.2980  19.1795  19.1795

     occupation numbers 
     1.0000   1.0000   1.0000   1.0000   1.0000   1.0000   1.0000   1.0000
     1.0000   1.0000   1.0000   1.0000   1.0000   1.0000   1.0000   1.0000
     1.0000   1.0000   1.0000   1.0000   1.0000   1.0000   1.0000   1.0000
     1.0000   1.0000   1.0000   1.0000   1.0000   1.0000   1.0000   1.0000
     1.0000   1.0000   1.0000   1.0000   1.0000   1.0000   1.0000   1.0000
     1.0000   1.0000   1.0000   1.0000   1.0000   1.0000   1.0000   1.0000
     1.0000   1.0000   1.0000   1.0000   1.0000   1.0000   1.0000   1.0000
     1.0000   1.0000  -0.0000  -0.0000  -0.0000  -0.0000  -0.0000  -0.0000
    -0.0000  -0.0000  -0.0000  -0.0000  -0.0000  -0.0000

          k = 0.0000 0.0000 0.3562 (  5381 PWs)   bands (ev):

   -79.3805 -79.3805 -79.3795 -79.3795 -46.2284 -46.2284 -46.2208 -46.2208
   -32.7837 -32.7837 -32.7808 -32.7808 -32.6347 -32.6347 -32.6138 -32.6138
    -6.5615  -6.5615  -5.6939  -5.6939  -5.2206  -5.2206  -5.1007  -5.1007
     5.0361   5.0361   5.0434   5.0434   6.4658   6.4658   6.4689   6.4689
     6.8577   6.8577   7.2518   7.2518   8.2923   8.2923   9.1122   9.1122
     9.3273   9.3273   9.4432   9.4432   9.7632   9.7632  10.5854  10.5854
    11.7977  11.7977  11.9557  11.9557  12.1541  12.1541  13.1796  13.1796
    13.2001  13.2001  14.5225  14.5225  15.6444  15.6444  16.6628  16.6628
    16.9547  16.9547  17.9982  17.9982  19.8580  19.8580

     occupation numbers 
     1.0000   1.0000   1.0000   1.0000   1.0000   1.0000   1.0000   1.0000
     1.0000   1.0000   1.0000   1.0000   1.0000   1.0000   1.0000   1.0000
     1.0000   1.0000   1.0000   1.0000   1.0000   1.0000   1.0000   1.0000
     1.0000   1.0000   1.0000   1.0000   1.0000   1.0000   1.0000   1.0000
     1.0000   1.0000   1.0000   1.0000   1.0000   1.0000   1.0000   1.0000
     1.0000   1.0000   1.0000   1.0000   1.0000   1.0000   1.0000   1.0000
     1.0000   1.0000   1.0000   1.0000   1.0000   1.0000   1.0000   1.0000
     1.0000   1.0000  -0.0000  -0.0000  -0.0000  -0.0000  -0.0000  -0.0000
    -0.0000  -0.0000  -0.0000  -0.0000  -0.0000  -0.0000

          k = 0.0000 0.0000 0.5343 (  5393 PWs)   bands (ev):

   -79.3794 -79.3794 -79.3789 -79.3789 -46.2306 -46.2306 -46.2265 -46.2265
   -32.8054 -32.8054 -32.8010 -32.8010 -32.6353 -32.6353 -32.6211 -32.6211
    -6.0968  -6.0968  -5.6161  -5.6161  -5.3519  -5.3519  -5.3072  -5.3072
     5.4581   5.4581   5.7040   5.7040   6.4506   6.4506   6.8500   6.8500
     6.8996   6.8996   7.3404   7.3404   7.5962   7.5962   8.4788   8.4788
     8.6077   8.6077   9.5879   9.5879   9.7567   9.7567   9.9579   9.9579
    11.7916  11.7916  12.1425  12.1425  12.4603  12.4603  13.5920  13.5920
    13.8242  13.8242  14.0992  14.0992  16.0612  16.0612  16.2271  16.2271
    16.5479  16.5479  17.0896  17.0896  21.4155  21.4155

     occupation numbers 
     1.0000   1.0000   1.0000   1.0000   1.0000   1.0000   1.0000   1.0000
     1.0000   1.0000   1.0000   1.0000   1.0000   1.0000   1.0000   1.0000
     1.0000   1.0000   1.0000   1.0000   1.0000   1.0000   1.0000   1.0000
     1.0000   1.0000   1.0000   1.0000   1.0000   1.0000   1.0000   1.0000
     1.0000   1.0000   1.0000   1.0000   1.0000   1.0000   1.0000   1.0000
     1.0000   1.0000   1.0000   1.0000   1.0000   1.0000   1.0000   1.0000
     1.0000   1.0000   1.0000   1.0000   1.0000   1.0000   1.0000   1.0000
     0.7879   0.7879  -0.0000  -0.0000  -0.0000  -0.0000  -0.0000  -0.0000
    -0.0000  -0.0000  -0.0000  -0.0000  -0.0000  -0.0000

          k = 0.0000 0.0000-0.7124 (  5314 PWs)   bands (ev):

   -79.3788 -79.3788 -79.3788 -79.3788 -46.2302 -46.2302 -46.2302 -46.2302
   -32.8127 -32.8127 -32.8127 -32.8127 -32.6289 -32.6289 -32.6289 -32.6289
    -5.7355  -5.7355  -5.7355  -5.7355  -5.4027  -5.4027  -5.4027  -5.4027
     5.7324   5.7324   5.7324   5.7324   6.7014   6.7014   6.7014   6.7014
     7.0969   7.0969   7.0969   7.0969   8.2008   8.2008   8.2008   8.2008
     8.5517   8.5517   8.5517   8.5517   9.9555   9.9555   9.9555   9.9555
    11.8965  11.8965  11.8965  11.8965  13.0839  13.0839  13.0839  13.0839
    14.1193  14.1193  14.1193  14.1193  16.0947  16.0947  16.0947  16.0947
    16.6101  16.6101  16.6101  16.6101  22.9228  22.9228

     occupation numbers 
     1.0000   1.0000   1.0000   1.0000   1.0000   1.0000   1.0000   1.0000
     1.0000   1.0000   1.0000   1.0000   1.0000   1.0000   1.0000   1.0000
     1.0000   1.0000   1.0000   1.0000   1.0000   1.0000   1.0000   1.0000
     1.0000   1.0000   1.0000   1.0000   1.0000   1.0000   1.0000   1.0000
     1.0000   1.0000   1.0000   1.0000   1.0000   1.0000   1.0000   1.0000
     1.0000   1.0000   1.0000   1.0000   1.0000   1.0000   1.0000   1.0000
     1.0000   1.0000   1.0000   1.0000   1.0000   1.0000   1.0000   1.0000
    -0.0000  -0.0000  -0.0000  -0.0000  -0.0000  -0.0000  -0.0000  -0.0000
    -0.0000  -0.0000  -0.0000  -0.0000  -0.0000  -0.0000

          k = 0.0000 0.1667 0.0000 (  5375 PWs)   bands (ev):

   -79.3817 -79.3817 -79.3806 -79.3806 -46.2237 -46.2237 -46.2144 -46.2144
   -32.7623 -32.7623 -32.7538 -32.7538 -32.6197 -32.6197 -32.6065 -32.6065
    -6.9720  -6.9720  -5.9098  -5.9098  -5.0950  -5.0950  -4.9041  -4.9041
     4.5301   4.5301   4.7143   4.7143   6.0716   6.0716   6.1673   6.1673
     6.4322   6.4322   8.5508   8.5508   8.6480   8.6480   8.8447   8.8447
     9.8478   9.8478  10.2166  10.2166  10.6882  10.6882  11.4683  11.4683
    11.5016  11.5016  11.5591  11.5591  11.8250  11.8250  11.9604  11.9604
    12.3789  12.3789  14.8499  14.8499  15.1099  15.1099  17.5835  17.5835
    17.9010  17.9010  18.3692  18.3692  19.1978  19.1978

     occupation numbers 
     1.0000   1.0000   1.0000   1.0000   1.0000   1.0000   1.0000   1.0000
     1.0000   1.0000   1.0000   1.0000   1.0000   1.0000   1.0000   1.0000
     1.0000   1.0000   1.0000   1.0000   1.0000   1.0000   1.0000   1.0000
     1.0000   1.0000   1.0000   1.0000   1.0000   1.0000   1.0000   1.0000
     1.0000   1.0000   1.0000   1.0000   1.0000   1.0000   1.0000   1.0000
     1.0000   1.0000   1.0000   1.0000   1.0000   1.0000   1.0000   1.0000
     1.0000   1.0000   1.0000   1.0000   1.0000   1.0000   1.0000   1.0000
     1.0000   1.0000  -0.0000  -0.0000  -0.0000  -0.0000  -0.0000  -0.0000
    -0.0000  -0.0000  -0.0000  -0.0000  -0.0000  -0.0000

          k = 0.0000 0.1667 0.1781 (  5364 PWs)   bands (ev):

   -79.3813 -79.3813 -79.3803 -79.3803 -46.2249 -46.2249 -46.2163 -46.2163
   -32.7681 -32.7681 -32.7603 -32.7603 -32.6256 -32.6256 -32.6091 -32.6091
    -6.8353  -6.8353  -5.8307  -5.8307  -5.1583  -5.1583  -4.9847  -4.9847
     4.7102   4.7102   4.8605   4.8605   6.1655   6.1655   6.2306   6.2306
     6.6322   6.6322   8.1038   8.1038   8.6433   8.6433   8.9088   8.9088
     9.1894   9.1894  10.0726  10.0726  10.1776  10.1776  11.3359  11.3359
    11.4964  11.4964  11.9647  11.9647  12.0175  12.0175  12.3709  12.3709
    12.6710  12.6710  14.7297  14.7297  15.3708  15.3708  17.1416  17.1416
    17.4657  17.4657  18.8013  18.8013  19.0320  19.0320

     occupation numbers 
     1.0000   1.0000   1.0000   1.0000   1.0000   1.0000   1.0000   1.0000
     1.0000   1.0000   1.0000   1.0000   1.0000   1.0000   1.0000   1.0000
     1.0000   1.0000   1.0000   1.0000   1.0000   1.0000   1.0000   1.0000
     1.0000   1.0000   1.0000   1.0000   1.0000   1.0000   1.0000   1.0000
     1.0000   1.0000   1.0000   1.0000   1.0000   1.0000   1.0000   1.0000
     1.0000   1.0000   1.0000   1.0000   1.0000   1.0000   1.0000   1.0000
     1.0000   1.0000   1.0000   1.0000   1.0000   1.0000   1.0000   1.0000
     1.0000   1.0000  -0.0000  -0.0000  -0.0000  -0.0000  -0.0000  -0.0000
    -0.0000  -0.0000  -0.0000  -0.0000  -0.0000  -0.0000

          k = 0.0000 0.1667 0.3562 (  5387 PWs)   bands (ev):

   -79.3804 -79.3804 -79.3796 -79.3796 -46.2279 -46.2279 -46.2213 -46.2213
   -32.7880 -32.7880 -32.7760 -32.7760 -32.6346 -32.6346 -32.6148 -32.6148
    -6.4790  -6.4790  -5.6686  -5.6686  -5.2951  -5.2951  -5.1680  -5.1680
     5.1723   5.1723   5.2384   5.2384   6.4043   6.4043   6.4828   6.4828
     7.0675   7.0675   7.2262   7.2262   7.8515   7.8515   8.9848   8.9848
     9.3138   9.3138   9.4577   9.4577   9.5450   9.5450  10.8341  10.8341
    11.5898  11.5898  12.1166  12.1166  12.3260  12.3260  13.0205  13.0205
    13.3076  13.3076  14.4069  14.4069  15.8946  15.8946  16.3716  16.3716
    16.8252  16.8252  18.2799  18.2799  20.1015  20.1015

     occupation numbers 
     1.0000   1.0000   1.0000   1.0000   1.0000   1.0000   1.0000   1.0000
     1.0000   1.0000   1.0000   1.0000   1.0000   1.0000   1.0000   1.0000
     1.0000   1.0000   1.0000   1.0000   1.0000   1.0000   1.0000   1.0000
     1.0000   1.0000   1.0000   1.0000   1.0000   1.0000   1.0000   1.0000
     1.0000   1.0000   1.0000   1.0000   1.0000   1.0000   1.0000   1.0000
     1.0000   1.0000   1.0000   1.0000   1.0000   1.0000   1.0000   1.0000
     1.0000   1.0000   1.0000   1.0000   1.0000   1.0000   1.0000   1.0000
     1.0000   1.0000  -0.0000  -0.0000  -0.0000  -0.0000  -0.0000  -0.0000
    -0.0000  -0.0000  -0.0000  -0.0000  -0.0000  -0.0000

          k = 0.0000 0.1667 0.5343 (  5378 PWs)   bands (ev):

   -79.3794 -79.3794 -79.3790 -79.3790 -46.2304 -46.2304 -46.2267 -46.2267
   -32.8108 -32.8108 -32.7957 -32.7957 -32.6361 -32.6361 -32.6205 -32.6205
    -6.0555  -6.0555  -5.6318  -5.6318  -5.3886  -5.3886  -5.2997  -5.2997
     5.5586   5.5586   5.7573   5.7573   6.1580   6.1580   6.6639   6.6639
     7.1392   7.1392   7.2492   7.2492   7.8859   7.8859   8.5224   8.5224
     8.7480   8.7480   9.5199   9.5199   9.7288   9.7288   9.9418   9.9418
    11.8645  11.8645  12.1434  12.1434  12.2395  12.2395  13.2438  13.2438
    13.8470  13.8470  14.2353  14.2353  15.7425  15.7425  15.8692  15.8692
    16.8865  16.8865  17.6658  17.6658  21.5582  21.5582

     occupation numbers 
     1.0000   1.0000   1.0000   1.0000   1.0000   1.0000   1.0000   1.0000
     1.0000   1.0000   1.0000   1.0000   1.0000   1.0000   1.0000   1.0000
     1.0000   1.0000   1.0000   1.0000   1.0000   1.0000   1.0000   1.0000
     1.0000   1.0000   1.0000   1.0000   1.0000   1.0000   1.0000   1.0000
     1.0000   1.0000   1.0000   1.0000   1.0000   1.0000   1.0000   1.0000
     1.0000   1.0000   1.0000   1.0000   1.0000   1.0000   1.0000   1.0000
     1.0000   1.0000   1.0000   1.0000   1.0000   1.0000   1.0000   1.0000
     0.5270   0.5270  -0.0000  -0.0000  -0.0000  -0.0000  -0.0000  -0.0000
    -0.0000  -0.0000  -0.0000  -0.0000  -0.0000  -0.0000

          k = 0.0000 0.1667-0.7124 (  5378 PWs)   bands (ev):

   -79.3788 -79.3788 -79.3788 -79.3788 -46.2307 -46.2307 -46.2297 -46.2297
   -32.8206 -32.8206 -32.8051 -32.8051 -32.6339 -32.6339 -32.6239 -32.6239
    -5.7707  -5.7707  -5.7536  -5.7536  -5.4207  -5.4207  -5.3219  -5.3219
     5.7151   5.7151   5.7785   5.7785   6.2407   6.2407   6.3480   6.3480
     7.4704   7.4704   7.5154   7.5154   8.1074   8.1074   8.2967   8.2967
     8.8351   8.8351   8.8914   8.8914   9.7661   9.7661   9.8050   9.8050
    11.8831  11.8831  11.9106  11.9106  12.6600  12.6600  12.8798  12.8798
    14.0484  14.0484  14.3405  14.3405  15.5651  15.5651  15.6574  15.6574
    17.1478  17.1478  17.3485  17.3485  22.9357  22.9371

     occupation numbers 
     1.0000   1.0000   1.0000   1.0000   1.0000   1.0000   1.0000   1.0000
     1.0000   1.0000   1.0000   1.0000   1.0000   1.0000   1.0000   1.0000
     1.0000   1.0000   1.0000   1.0000   1.0000   1.0000   1.0000   1.0000
     1.0000   1.0000   1.0000   1.0000   1.0000   1.0000   1.0000   1.0000
     1.0000   1.0000   1.0000   1.0000   1.0000   1.0000   1.0000   1.0000
     1.0000   1.0000   1.0000   1.0000   1.0000   1.0000   1.0000   1.0000
     1.0000   1.0000   1.0000   1.0000   1.0000   1.0000   1.0000   1.0000
    -0.0001  -0.0001  -0.0000  -0.0000  -0.0000  -0.0000  -0.0000  -0.0000
    -0.0000  -0.0000  -0.0000  -0.0000  -0.0000  -0.0000

          k = 0.0000 0.3333 0.0000 (  5372 PWs)   bands (ev):

   -79.3815 -79.3815 -79.3808 -79.3808 -46.2217 -46.2217 -46.2163 -46.2163
   -32.7589 -32.7589 -32.7540 -32.7540 -32.6188 -32.6188 -32.6111 -32.6111
    -6.6814  -6.6814  -5.9685  -5.9685  -5.2794  -5.2794  -5.0962  -5.0962
     5.1622   5.1622   5.2413   5.2413   6.1579   6.1579   6.2159   6.2159
     6.9469   6.9469   7.7700   7.7700   7.9138   7.9138   8.6237   8.6237
     9.0210   9.0210   9.2178   9.2178  10.6146  10.6146  11.1850  11.1850
    11.9018  11.9018  12.0148  12.0148  12.2300  12.2300  12.4093  12.4093
    12.9480  12.9480  14.3208  14.3208  16.1648  16.1648  17.3608  17.3608
    17.5880  17.5880  18.4837  18.4837  19.5066  19.5066

     occupation numbers 
     1.0000   1.0000   1.0000   1.0000   1.0000   1.0000   1.0000   1.0000
     1.0000   1.0000   1.0000   1.0000   1.0000   1.0000   1.0000   1.0000
     1.0000   1.0000   1.0000   1.0000   1.0000   1.0000   1.0000   1.0000
     1.0000   1.0000   1.0000   1.0000   1.0000   1.0000   1.0000   1.0000
     1.0000   1.0000   1.0000   1.0000   1.0000   1.0000   1.0000   1.0000
     1.0000   1.0000   1.0000   1.0000   1.0000   1.0000   1.0000   1.0000
     1.0000   1.0000   1.0000   1.0000   1.0000   1.0000   1.0000   1.0000
     1.0000   1.0000  -0.0000  -0.0000  -0.0000  -0.0000  -0.0000  -0.0000
    -0.0000  -0.0000  -0.0000  -0.0000  -0.0000  -0.0000

          k = 0.0000 0.3333 0.1781 (  5385 PWs)   bands (ev):

   -79.3811 -79.3811 -79.3805 -79.3805 -46.2232 -46.2232 -46.2182 -46.2182
   -32.7687 -32.7687 -32.7572 -32.7572 -32.6249 -32.6249 -32.6129 -32.6129
    -6.5572  -6.5572  -5.8673  -5.8673  -5.3462  -5.3462  -5.1610  -5.1610
     5.2917   5.2917   5.3930   5.3930   6.2062   6.2062   6.2550   6.2550
     7.1063   7.1063   7.9115   7.9115   7.9975   7.9975   8.1603   8.1603
     8.3408   8.3408   9.3964   9.3964  10.4956  10.4956  11.0852  11.0852
    11.8662  11.8662  12.1162  12.1162  12.4241  12.4241  12.6558  12.6558
    13.1054  13.1054  14.2350  14.2350  16.2555  16.2555  16.8482  16.8482
    17.1855  17.1855  18.4298  18.4298  19.9638  19.9638

     occupation numbers 
     1.0000   1.0000   1.0000   1.0000   1.0000   1.0000   1.0000   1.0000
     1.0000   1.0000   1.0000   1.0000   1.0000   1.0000   1.0000   1.0000
     1.0000   1.0000   1.0000   1.0000   1.0000   1.0000   1.0000   1.0000
     1.0000   1.0000   1.0000   1.0000   1.0000   1.0000   1.0000   1.0000
     1.0000   1.0000   1.0000   1.0000   1.0000   1.0000   1.0000   1.0000
     1.0000   1.0000   1.0000   1.0000   1.0000   1.0000   1.0000   1.0000
     1.0000   1.0000   1.0000   1.0000   1.0000   1.0000   1.0000   1.0000
     1.0000   1.0000  -0.0000  -0.0000  -0.0000  -0.0000  -0.0000  -0.0000
    -0.0000  -0.0000  -0.0000  -0.0000  -0.0000  -0.0000

          k = 0.0000 0.3333 0.3562 (  5364 PWs)   bands (ev):

   -79.3802 -79.3802 -79.3798 -79.3798 -46.2266 -46.2266 -46.2226 -46.2226
   -32.7917 -32.7917 -32.7712 -32.7712 -32.6341 -32.6341 -32.6168 -32.6168
    -6.2486  -6.2486  -5.6394  -5.6394  -5.4965  -5.4965  -5.2936  -5.2936
     5.5841   5.5841   5.6940   5.6940   6.3952   6.3952   6.5297   6.5297
     6.8760   6.8760   7.1638   7.1638   7.8111   7.8111   8.3547   8.3547
     8.6610   8.6610   9.3633   9.3633   9.9730   9.9730  10.8689  10.8689
    11.5410  11.5410  12.3801  12.3801  12.5326  12.5326  12.8574  12.8574
    13.5000  13.5000  14.1449  14.1449  15.8840  15.8840  16.0654  16.0654
    17.1035  17.1035  18.3126  18.3126  20.9048  20.9048

     occupation numbers 
     1.0000   1.0000   1.0000   1.0000   1.0000   1.0000   1.0000   1.0000
     1.0000   1.0000   1.0000   1.0000   1.0000   1.0000   1.0000   1.0000
     1.0000   1.0000   1.0000   1.0000   1.0000   1.0000   1.0000   1.0000
     1.0000   1.0000   1.0000   1.0000   1.0000   1.0000   1.0000   1.0000
     1.0000   1.0000   1.0000   1.0000   1.0000   1.0000   1.0000   1.0000
     1.0000   1.0000   1.0000   1.0000   1.0000   1.0000   1.0000   1.0000
     1.0000   1.0000   1.0000   1.0000   1.0000   1.0000   1.0000   1.0000
     1.0000   1.0000  -0.0000  -0.0000  -0.0000  -0.0000  -0.0000  -0.0000
    -0.0000  -0.0000  -0.0000  -0.0000  -0.0000  -0.0000

          k = 0.0000 0.3333 0.5343 (  5365 PWs)   bands (ev):

   -79.3793 -79.3793 -79.3791 -79.3791 -46.2299 -46.2299 -46.2273 -46.2273
   -32.8160 -32.8160 -32.7906 -32.7906 -32.6374 -32.6374 -32.6194 -32.6194
    -5.9461  -5.9461  -5.6917  -5.6917  -5.4405  -5.4405  -5.3045  -5.3045
     5.7208   5.7208   5.8233   5.8233   6.0143   6.0143   6.3285   6.3285
     7.1226   7.1226   7.4770   7.4770   8.0926   8.0926   8.7305   8.7305
     9.0064   9.0064   9.0909   9.0909   9.6159   9.6159  10.5669  10.5669
    11.3787  11.3787  12.1167  12.1167  12.1876  12.1876  12.6616  12.6616
    13.9442  13.9442  14.3364  14.3364  15.2833  15.2833  15.4882  15.4882
    17.5925  17.5925  18.2031  18.2031  22.0100  22.0100

     occupation numbers 
     1.0000   1.0000   1.0000   1.0000   1.0000   1.0000   1.0000   1.0000
     1.0000   1.0000   1.0000   1.0000   1.0000   1.0000   1.0000   1.0000
     1.0000   1.0000   1.0000   1.0000   1.0000   1.0000   1.0000   1.0000
     1.0000   1.0000   1.0000   1.0000   1.0000   1.0000   1.0000   1.0000
     1.0000   1.0000   1.0000   1.0000   1.0000   1.0000   1.0000   1.0000
     1.0000   1.0000   1.0000   1.0000   1.0000   1.0000   1.0000   1.0000
     1.0000   1.0000   1.0000   1.0000   1.0000   1.0000   1.0000   1.0000
    -0.0318  -0.0318  -0.0000  -0.0000  -0.0000  -0.0000  -0.0000  -0.0000
    -0.0000  -0.0000  -0.0000  -0.0000  -0.0000  -0.0000

          k = 0.0000 0.3333-0.7124 (  5356 PWs)   bands (ev):

   -79.3788 -79.3788 -79.3788 -79.3788 -46.2311 -46.2311 -46.2294 -46.2294
   -32.8264 -32.8264 -32.7997 -32.7997 -32.6375 -32.6375 -32.6202 -32.6202
    -5.8112  -5.8112  -5.8042  -5.8042  -5.3900  -5.3900  -5.2417  -5.2417
     5.5580   5.5580   5.6246   5.6246   6.1258   6.1258   6.1952   6.1952
     7.5987   7.5987   7.9114   7.9114   8.2226   8.2226   8.3994   8.3994
     9.2180   9.2180   9.2305   9.2305   9.8078   9.8078   9.8437   9.8437
    11.6853  11.6853  11.8270  11.8270  11.9255  11.9255  12.3697  12.3697
    14.1230  14.1230  14.4746  14.4746  15.1607  15.1607  15.2106  15.2106
    17.9024  17.9024  18.0901  18.0901  23.0305  23.0311

     occupation numbers 
     1.0000   1.0000   1.0000   1.0000   1.0000   1.0000   1.0000   1.0000
     1.0000   1.0000   1.0000   1.0000   1.0000   1.0000   1.0000   1.0000
     1.0000   1.0000   1.0000   1.0000   1.0000   1.0000   1.0000   1.0000
     1.0000   1.0000   1.0000   1.0000   1.0000   1.0000   1.0000   1.0000
     1.0000   1.0000   1.0000   1.0000   1.0000   1.0000   1.0000   1.0000
     1.0000   1.0000   1.0000   1.0000   1.0000   1.0000   1.0000   1.0000
     1.0000   1.0000   1.0000   1.0000   1.0000   1.0000   1.0000   1.0000
    -0.0000  -0.0000  -0.0000  -0.0000  -0.0000  -0.0000  -0.0000  -0.0000
    -0.0000  -0.0000  -0.0000  -0.0000  -0.0000  -0.0000

          k = 0.0000-0.5000 0.0000 (  5380 PWs)   bands (ev):

   -79.3812 -79.3812 -79.3812 -79.3812 -46.2190 -46.2190 -46.2190 -46.2190
   -32.7556 -32.7556 -32.7556 -32.7556 -32.6159 -32.6159 -32.6159 -32.6159
    -6.2823  -6.2823  -6.2823  -6.2823  -5.2653  -5.2653  -5.2653  -5.2653
     5.6281   5.6281   5.6281   5.6281   6.2392   6.2392   6.2392   6.2392
     7.2626   7.2626   7.2626   7.2626   7.8912   7.8912   7.8912   7.8912
     8.7690   8.7690   8.7690   8.7690  10.8260  10.8260  10.8260  10.8260
    12.1260  12.1260  12.1260  12.1260  12.5033  12.5033  12.5033  12.5033
    13.6390  13.6390  13.6390  13.6390  17.2188  17.2188  17.2188  17.2188
    17.5171  17.5171  17.5171  17.5171  20.7709  20.7709

     occupation numbers 
     1.0000   1.0000   1.0000   1.0000   1.0000   1.0000   1.0000   1.0000
     1.0000   1.0000   1.0000   1.0000   1.0000   1.0000   1.0000   1.0000
     1.0000   1.0000   1.0000   1.0000   1.0000   1.0000   1.0000   1.0000
     1.0000   1.0000   1.0000   1.0000   1.0000   1.0000   1.0000   1.0000
     1.0000   1.0000   1.0000   1.0000   1.0000   1.0000   1.0000   1.0000
     1.0000   1.0000   1.0000   1.0000   1.0000   1.0000   1.0000   1.0000
     1.0000   1.0000   1.0000   1.0000   1.0000   1.0000   1.0000   1.0000
     1.0001   1.0001   1.0001   1.0001  -0.0000  -0.0000  -0.0000  -0.0000
    -0.0000  -0.0000  -0.0000  -0.0000  -0.0000  -0.0000

          k = 0.0000-0.5000 0.1781 (  5376 PWs)   bands (ev):

   -79.3808 -79.3808 -79.3808 -79.3808 -46.2210 -46.2210 -46.2203 -46.2203
   -32.7688 -32.7688 -32.7558 -32.7558 -32.6241 -32.6241 -32.6153 -32.6153
    -6.1858  -6.1858  -6.1571  -6.1571  -5.3390  -5.3390  -5.3093  -5.3093
     5.7600   5.7600   5.8682   5.8682   6.1601   6.1601   6.1737   6.1737
     7.4949   7.4949   7.5554   7.5554   7.6727   7.6727   7.6749   7.6749
     8.4690   8.4690   8.5822   8.5822  10.8178  10.8178  10.8397  10.8397
    12.0527  12.0527  12.0769  12.0769  12.6922  12.6922  12.8306  12.8306
    13.5043  13.5043  13.7505  13.7505  16.6119  16.6119  16.8142  16.8142
    17.5511  17.5511  17.6016  17.6016  21.1728  21.1794

     occupation numbers 
     1.0000   1.0000   1.0000   1.0000   1.0000   1.0000   1.0000   1.0000
     1.0000   1.0000   1.0000   1.0000   1.0000   1.0000   1.0000   1.0000
     1.0000   1.0000   1.0000   1.0000   1.0000   1.0000   1.0000   1.0000
     1.0000   1.0000   1.0000   1.0000   1.0000   1.0000   1.0000   1.0000
     1.0000   1.0000   1.0000   1.0000   1.0000   1.0000   1.0000   1.0000
     1.0000   1.0000   1.0000   1.0000   1.0000   1.0000   1.0000   1.0000
     1.0000   1.0000   1.0000   1.0000   1.0000   1.0000   1.0000   1.0000
     1.0000   1.0000   1.0298   1.0298  -0.0000  -0.0000  -0.0000  -0.0000
    -0.0000  -0.0000  -0.0000  -0.0000  -0.0000  -0.0000

          k = 0.0000-0.5000 0.3562 (  5390 PWs)   bands (ev):

   -79.3800 -79.3800 -79.3800 -79.3800 -46.2253 -46.2253 -46.2239 -46.2239
   -32.7930 -32.7930 -32.7694 -32.7694 -32.6337 -32.6337 -32.6179 -32.6179
    -5.9377  -5.9377  -5.9061  -5.9061  -5.4730  -5.4730  -5.3945  -5.3945
     5.9733   5.9733   6.0308   6.0308   6.4510   6.4510   6.5480   6.5480
     6.6650   6.6650   6.7196   6.7196   8.0817   8.0817   8.0836   8.0836
     8.7578   8.7578   8.7595   8.7595  10.4257  10.4257  10.4471  10.4471
    12.0228  12.0228  12.0930  12.0930  12.6511  12.6511  12.9141  12.9141
    13.5827  13.5827  14.0162  14.0162  15.7589  15.7589  15.8797  15.8797
    17.7790  17.7790  17.8633  17.8633  21.9726  21.9782

     occupation numbers 
     1.0000   1.0000   1.0000   1.0000   1.0000   1.0000   1.0000   1.0000
     1.0000   1.0000   1.0000   1.0000   1.0000   1.0000   1.0000   1.0000
     1.0000   1.0000   1.0000   1.0000   1.0000   1.0000   1.0000   1.0000
     1.0000   1.0000   1.0000   1.0000   1.0000   1.0000   1.0000   1.0000
     1.0000   1.0000   1.0000   1.0000   1.0000   1.0000   1.0000   1.0000
     1.0000   1.0000   1.0000   1.0000   1.0000   1.0000   1.0000   1.0000
     1.0000   1.0000   1.0000   1.0000   1.0000   1.0000   1.0000   1.0000
     1.0000   1.0000  -0.0014  -0.0014  -0.0000  -0.0000  -0.0000  -0.0000
    -0.0000  -0.0000  -0.0000  -0.0000  -0.0000  -0.0000

          k = 0.0000-0.5000 0.5343 (  5370 PWs)   bands (ev):

   -79.3792 -79.3792 -79.3792 -79.3792 -46.2295 -46.2295 -46.2277 -46.2277
   -32.8179 -32.8179 -32.7887 -32.7887 -32.6380 -32.6380 -32.6189 -32.6189
    -5.8088  -5.8088  -5.8066  -5.8066  -5.4606  -5.4606  -5.3104  -5.3104
     5.7501   5.7501   5.7843   5.7843   6.1582   6.1582   6.1748   6.1748
     7.1478   7.1478   7.4646   7.4646   8.4157   8.4157   8.4321   8.4321
     8.9401   8.9401   9.0598   9.0598  10.2836  10.2836  10.3291  10.3291
    11.5303  11.5303  11.5589  11.5589  12.2173  12.2173  12.5229  12.5229
    13.9846  13.9846  14.3741  14.3741  15.2066  15.2066  15.2214  15.2214
    18.0778  18.0778  18.2283  18.2283  22.7647  22.7687

     occupation numbers 
     1.0000   1.0000   1.0000   1.0000   1.0000   1.0000   1.0000   1.0000
     1.0000   1.0000   1.0000   1.0000   1.0000   1.0000   1.0000   1.0000
     1.0000   1.0000   1.0000   1.0000   1.0000   1.0000   1.0000   1.0000
     1.0000   1.0000   1.0000   1.0000   1.0000   1.0000   1.0000   1.0000
     1.0000   1.0000   1.0000   1.0000   1.0000   1.0000   1.0000   1.0000
     1.0000   1.0000   1.0000   1.0000   1.0000   1.0000   1.0000   1.0000
     1.0000   1.0000   1.0000   1.0000   1.0000   1.0000   1.0000   1.0000
    -0.0082  -0.0082  -0.0000  -0.0000  -0.0000  -0.0000  -0.0000  -0.0000
    -0.0000  -0.0000  -0.0000  -0.0000  -0.0000  -0.0000

          k = 0.0000-0.5000-0.7124 (  5360 PWs)   bands (ev):

   -79.3788 -79.3788 -79.3788 -79.3788 -46.2312 -46.2312 -46.2293 -46.2293
   -32.8285 -32.8285 -32.7977 -32.7977 -32.6388 -32.6388 -32.6189 -32.6189
    -5.8278  -5.8278  -5.8273  -5.8273  -5.3723  -5.3723  -5.2097  -5.2097
     5.4433   5.4433   5.4863   5.4863   6.2133   6.2133   6.2153   6.2153
     7.5315   7.5315   8.0720   8.0720   8.4803   8.4803   8.6292   8.6292
     8.8381   8.8381   8.9339   8.9339  10.6095  10.6095  10.6210  10.6210
    11.0383  11.0383  11.0524  11.0524  11.9030  11.9030  12.2314  12.2314
    14.1606  14.1606  14.5046  14.5046  15.0199  15.0199  15.0660  15.0660
    18.2277  18.2277  18.3970  18.3970  23.1345  23.1345

     occupation numbers 
     1.0000   1.0000   1.0000   1.0000   1.0000   1.0000   1.0000   1.0000
     1.0000   1.0000   1.0000   1.0000   1.0000   1.0000   1.0000   1.0000
     1.0000   1.0000   1.0000   1.0000   1.0000   1.0000   1.0000   1.0000
     1.0000   1.0000   1.0000   1.0000   1.0000   1.0000   1.0000   1.0000
     1.0000   1.0000   1.0000   1.0000   1.0000   1.0000   1.0000   1.0000
     1.0000   1.0000   1.0000   1.0000   1.0000   1.0000   1.0000   1.0000
     1.0000   1.0000   1.0000   1.0000   1.0000   1.0000   1.0000   1.0000
    -0.0000  -0.0000  -0.0000  -0.0000  -0.0000  -0.0000  -0.0000  -0.0000
    -0.0000  -0.0000  -0.0000  -0.0000  -0.0000  -0.0000

          k = 0.1667 0.1667 0.0000 (  5363 PWs)   bands (ev):

   -79.3817 -79.3817 -79.3807 -79.3807 -46.2230 -46.2230 -46.2150 -46.2150
   -32.7614 -32.7614 -32.7538 -32.7538 -32.6194 -32.6194 -32.6078 -32.6078
    -6.8862  -6.8862  -5.9131  -5.9131  -5.2069  -5.2069  -4.9164  -4.9164
     4.3917   4.3917   5.2172   5.2172   6.0606   6.0606   6.2088   6.2088
     6.5989   6.5989   7.8249   7.8249   8.6278   8.6278   8.9958   8.9958
     9.7995   9.7995  10.1718  10.1718  10.3788  10.3788  11.1575  11.1575
    11.3890  11.3890  11.6427  11.6427  12.0481  12.0481  12.2605  12.2605
    12.6645  12.6645  14.7254  14.7254  15.2674  15.2674  17.4336  17.4336
    17.9023  17.9023  18.8664  18.8664  18.9391  18.9391

     occupation numbers 
     1.0000   1.0000   1.0000   1.0000   1.0000   1.0000   1.0000   1.0000
     1.0000   1.0000   1.0000   1.0000   1.0000   1.0000   1.0000   1.0000
     1.0000   1.0000   1.0000   1.0000   1.0000   1.0000   1.0000   1.0000
     1.0000   1.0000   1.0000   1.0000   1.0000   1.0000   1.0000   1.0000
     1.0000   1.0000   1.0000   1.0000   1.0000   1.0000   1.0000   1.0000
     1.0000   1.0000   1.0000   1.0000   1.0000   1.0000   1.0000   1.0000
     1.0000   1.0000   1.0000   1.0000   1.0000   1.0000   1.0000   1.0000
     1.0000   1.0000  -0.0000  -0.0000  -0.0000  -0.0000  -0.0000  -0.0000
    -0.0000  -0.0000  -0.0000  -0.0000  -0.0000  -0.0000

          k = 0.1667 0.1667 0.1781 (  5370 PWs)   bands (ev):

   -79.3813 -79.3813 -79.3804 -79.3804 -46.2244 -46.2244 -46.2169 -46.2169
   -32.7683 -32.7683 -32.7594 -32.7594 -32.6252 -32.6252 -32.6104 -32.6104
    -6.7532  -6.7532  -5.8258  -5.8258  -5.2698  -5.2698  -4.9953  -4.9953
     4.5657   4.5657   5.3521   5.3521   6.1026   6.1026   6.2902   6.2902
     6.8095   6.8095   7.8910   7.8910   8.1230   8.1230   8.9776   8.9776
     9.1349   9.1349  10.0204  10.0204  10.3174  10.3174  11.0539  11.0539
    11.5207  11.5207  11.7624  11.7624  12.2207  12.2207  12.5571  12.5571
    12.9173  12.9173  14.5957  14.5957  15.5411  15.5411  16.9149  16.9149
    17.5194  17.5194  18.7685  18.7685  19.3308  19.3308

     occupation numbers 
     1.0000   1.0000   1.0000   1.0000   1.0000   1.0000   1.0000   1.0000
     1.0000   1.0000   1.0000   1.0000   1.0000   1.0000   1.0000   1.0000
     1.0000   1.0000   1.0000   1.0000   1.0000   1.0000   1.0000   1.0000
     1.0000   1.0000   1.0000   1.0000   1.0000   1.0000   1.0000   1.0000
     1.0000   1.0000   1.0000   1.0000   1.0000   1.0000   1.0000   1.0000
     1.0000   1.0000   1.0000   1.0000   1.0000   1.0000   1.0000   1.0000
     1.0000   1.0000   1.0000   1.0000   1.0000   1.0000   1.0000   1.0000
     1.0000   1.0000  -0.0000  -0.0000  -0.0000  -0.0000  -0.0000  -0.0000
    -0.0000  -0.0000  -0.0000  -0.0000  -0.0000  -0.0000

          k = 0.1667 0.1667 0.3562 (  5374 PWs)   bands (ev):

   -79.3803 -79.3803 -79.3797 -79.3797 -46.2275 -46.2275 -46.2217 -46.2217
   -32.7892 -32.7892 -32.7746 -32.7746 -32.6341 -32.6341 -32.6157 -32.6157
    -6.4098  -6.4098  -5.6450  -5.6450  -5.3970  -5.3970  -5.1772  -5.1772
     5.0289   5.0289   5.6428   5.6428   6.2646   6.2646   6.6168   6.6168
     6.9284   6.9284   7.3413   7.3413   7.8537   7.8537   8.5055   8.5055
     9.1342   9.1342   9.5658   9.5658   9.8485   9.8485  11.0025  11.0025
    11.3857  11.3857  11.9963  11.9963  12.5155  12.5155  12.9533  12.9533
    13.4141  13.4141  14.3146  14.3146  15.8857  15.8857  16.2726  16.2726
    16.8721  16.8721  18.3192  18.3192  20.3843  20.3843

     occupation numbers 
     1.0000   1.0000   1.0000   1.0000   1.0000   1.0000   1.0000   1.0000
     1.0000   1.0000   1.0000   1.0000   1.0000   1.0000   1.0000   1.0000
     1.0000   1.0000   1.0000   1.0000   1.0000   1.0000   1.0000   1.0000
     1.0000   1.0000   1.0000   1.0000   1.0000   1.0000   1.0000   1.0000
     1.0000   1.0000   1.0000   1.0000   1.0000   1.0000   1.0000   1.0000
     1.0000   1.0000   1.0000   1.0000   1.0000   1.0000   1.0000   1.0000
     1.0000   1.0000   1.0000   1.0000   1.0000   1.0000   1.0000   1.0000
     1.0000   1.0000  -0.0000  -0.0000  -0.0000  -0.0000  -0.0000  -0.0000
    -0.0000  -0.0000  -0.0000  -0.0000  -0.0000  -0.0000

          k = 0.1667 0.1667 0.5343 (  5371 PWs)   bands (ev):

   -79.3794 -79.3794 -79.3790 -79.3790 -46.2302 -46.2302 -46.2269 -46.2269
   -32.8124 -32.8124 -32.7942 -32.7942 -32.6363 -32.6363 -32.6204 -32.6204
    -6.0170  -6.0170  -5.6436  -5.6436  -5.4106  -5.4106  -5.3043  -5.3043
     5.5697   5.5697   5.8357   5.8357   6.0637   6.0637   6.5486   6.5486
     6.9279   6.9279   7.4923   7.4923   8.0469   8.0469   8.5419   8.5419
     8.7912   8.7912   9.3617   9.3617   9.7293   9.7293  10.2116  10.2116
    11.7680  11.7680  12.0457  12.0457  12.2662  12.2662  13.2880  13.2880
    13.5296  13.5296  14.3679  14.3679  15.3401  15.3401  16.2336  16.2336
    16.7759  16.7759  17.9314  17.9314  21.6980  21.6980

     occupation numbers 
     1.0000   1.0000   1.0000   1.0000   1.0000   1.0000   1.0000   1.0000
     1.0000   1.0000   1.0000   1.0000   1.0000   1.0000   1.0000   1.0000
     1.0000   1.0000   1.0000   1.0000   1.0000   1.0000   1.0000   1.0000
     1.0000   1.0000   1.0000   1.0000   1.0000   1.0000   1.0000   1.0000
     1.0000   1.0000   1.0000   1.0000   1.0000   1.0000   1.0000   1.0000
     1.0000   1.0000   1.0000   1.0000   1.0000   1.0000   1.0000   1.0000
     1.0000   1.0000   1.0000   1.0000   1.0000   1.0000   1.0000   1.0000
     1.0000   1.0000  -0.0000  -0.0000  -0.0000  -0.0000  -0.0000  -0.0000
    -0.0000  -0.0000  -0.0000  -0.0000  -0.0000  -0.0000

          k = 0.1667 0.1667-0.7124 (  5376 PWs)   bands (ev):

   -79.3788 -79.3788 -79.3788 -79.3788 -46.2308 -46.2308 -46.2296 -46.2296
   -32.8224 -32.8224 -32.8034 -32.8034 -32.6350 -32.6350 -32.6228 -32.6228
    -5.8201  -5.8201  -5.7014  -5.7014  -5.4548  -5.4548  -5.2823  -5.2823
     5.5981   5.5981   5.9132   5.9132   6.0715   6.0715   6.5181   6.5181
     6.7361   6.7361   8.0655   8.0655   8.3058   8.3058   8.4744   8.4744
     8.7925   8.7925   9.2557   9.2557   9.3185   9.3185  10.0042  10.0042
    11.8699  11.8699  11.8892  11.8892  12.3449  12.3449  13.0057  13.0057
    13.7238  13.7238  14.5162  14.5162  15.1190  15.1190  16.1106  16.1106
    16.8244  16.8244  17.8490  17.8490  22.9112  22.9121

     occupation numbers 
     1.0000   1.0000   1.0000   1.0000   1.0000   1.0000   1.0000   1.0000
     1.0000   1.0000   1.0000   1.0000   1.0000   1.0000   1.0000   1.0000
     1.0000   1.0000   1.0000   1.0000   1.0000   1.0000   1.0000   1.0000
     1.0000   1.0000   1.0000   1.0000   1.0000   1.0000   1.0000   1.0000
     1.0000   1.0000   1.0000   1.0000   1.0000   1.0000   1.0000   1.0000
     1.0000   1.0000   1.0000   1.0000   1.0000   1.0000   1.0000   1.0000
     1.0000   1.0000   1.0000   1.0000   1.0000   1.0000   1.0000   1.0000
     1.0129   1.0129  -0.0000  -0.0000  -0.0000  -0.0000  -0.0000  -0.0000
    -0.0000  -0.0000  -0.0000  -0.0000  -0.0000  -0.0000

          k = 0.1667 0.3333 0.0000 (  5389 PWs)   bands (ev):

   -79.3814 -79.3814 -79.3809 -79.3809 -46.2214 -46.2214 -46.2167 -46.2167
   -32.7591 -32.7591 -32.7544 -32.7544 -32.6182 -32.6182 -32.6113 -32.6113
    -6.6484  -6.6484  -6.0227  -6.0227  -5.3056  -5.3056  -5.0299  -5.0299
     4.6232   4.6232   5.6460   5.6460   6.0882   6.0882   6.2437   6.2437
     7.0629   7.0629   7.3227   7.3227   8.5261   8.5261   8.6631   8.6631
     9.3740   9.3740   9.4379   9.4379  10.2217  10.2217  11.0100  11.0100
    11.5597  11.5597  11.8966  11.8966  12.1857  12.1857  12.5190  12.5190
    13.1659  13.1659  14.3216  14.3216  15.9819  15.9819  17.3274  17.3274
    17.7055  17.7055  18.2179  18.2179  19.9706  19.9706

     occupation numbers 
     1.0000   1.0000   1.0000   1.0000   1.0000   1.0000   1.0000   1.0000
     1.0000   1.0000   1.0000   1.0000   1.0000   1.0000   1.0000   1.0000
     1.0000   1.0000   1.0000   1.0000   1.0000   1.0000   1.0000   1.0000
     1.0000   1.0000   1.0000   1.0000   1.0000   1.0000   1.0000   1.0000
     1.0000   1.0000   1.0000   1.0000   1.0000   1.0000   1.0000   1.0000
     1.0000   1.0000   1.0000   1.0000   1.0000   1.0000   1.0000   1.0000
     1.0000   1.0000   1.0000   1.0000   1.0000   1.0000   1.0000   1.0000
     1.0000   1.0000  -0.0000  -0.0000  -0.0000  -0.0000  -0.0000  -0.0000
    -0.0000  -0.0000  -0.0000  -0.0000  -0.0000  -0.0000

          k = 0.1667 0.3333 0.1781 (  5378 PWs)   bands (ev):

   -79.3811 -79.3811 -79.3806 -79.3806 -46.2228 -46.2228 -46.2185 -46.2185
   -32.7685 -32.7685 -32.7579 -32.7579 -32.6241 -32.6241 -32.6134 -32.6134
    -6.5255  -6.5255  -5.9197  -5.9197  -5.3693  -5.3693  -5.1001  -5.1001
     4.7819   4.7819   5.8289   5.8289   6.1060   6.1060   6.1787   6.1787
     7.2628   7.2628   7.5993   7.5993   7.9261   7.9261   8.5050   8.5050
     8.9445   8.9445   9.5304   9.5304  10.2478  10.2478  10.7885  10.7885
    11.7616  11.7616  11.9847  11.9847  12.3319  12.3319  12.7706  12.7706
    13.2394  13.2394  14.2092  14.2092  16.1545  16.1545  16.7812  16.7812
    17.3632  17.3632  18.2027  18.2027  20.3518  20.3518

     occupation numbers 
     1.0000   1.0000   1.0000   1.0000   1.0000   1.0000   1.0000   1.0000
     1.0000   1.0000   1.0000   1.0000   1.0000   1.0000   1.0000   1.0000
     1.0000   1.0000   1.0000   1.0000   1.0000   1.0000   1.0000   1.0000
     1.0000   1.0000   1.0000   1.0000   1.0000   1.0000   1.0000   1.0000
     1.0000   1.0000   1.0000   1.0000   1.0000   1.0000   1.0000   1.0000
     1.0000   1.0000   1.0000   1.0000   1.0000   1.0000   1.0000   1.0000
     1.0000   1.0000   1.0000   1.0000   1.0000   1.0000   1.0000   1.0000
     1.0000   1.0000  -0.0000  -0.0000  -0.0000  -0.0000  -0.0000  -0.0000
    -0.0000  -0.0000  -0.0000  -0.0000  -0.0000  -0.0000

          k = 0.1667 0.3333 0.3562 (  5375 PWs)   bands (ev):

   -79.3802 -79.3802 -79.3798 -79.3798 -46.2264 -46.2264 -46.2229 -46.2229
   -32.7910 -32.7910 -32.7723 -32.7723 -32.6331 -32.6331 -32.6176 -32.6176
    -6.2190  -6.2190  -5.6887  -5.6887  -5.5024  -5.5024  -5.2557  -5.2557
     5.1895   5.1895   6.0065   6.0065   6.2264   6.2264   6.5223   6.5223
     6.7042   6.7042   7.5490   7.5490   7.8796   7.8796   8.2357   8.2357
     9.1064   9.1064   9.2677   9.2677   9.9529   9.9529  10.7330  10.7330
    11.6266  11.6266  12.1625  12.1625  12.5435  12.5435  12.9114  12.9114
    13.5067  13.5067  14.0696  14.0696  15.7835  15.7835  16.3428  16.3428
    17.0269  17.0269  18.1625  18.1625  21.1541  21.1541

     occupation numbers 
     1.0000   1.0000   1.0000   1.0000   1.0000   1.0000   1.0000   1.0000
     1.0000   1.0000   1.0000   1.0000   1.0000   1.0000   1.0000   1.0000
     1.0000   1.0000   1.0000   1.0000   1.0000   1.0000   1.0000   1.0000
     1.0000   1.0000   1.0000   1.0000   1.0000   1.0000   1.0000   1.0000
     1.0000   1.0000   1.0000   1.0000   1.0000   1.0000   1.0000   1.0000
     1.0000   1.0000   1.0000   1.0000   1.0000   1.0000   1.0000   1.0000
     1.0000   1.0000   1.0000   1.0000   1.0000   1.0000   1.0000   1.0000
     1.0000   1.0000  -0.0000  -0.0000  -0.0000  -0.0000  -0.0000  -0.0000
    -0.0000  -0.0000  -0.0000  -0.0000  -0.0000  -0.0000

          k = 0.1667 0.3333 0.5343 (  5365 PWs)   bands (ev):

   -79.3793 -79.3793 -79.3791 -79.3791 -46.2297 -46.2297 -46.2275 -46.2275
   -32.8149 -32.8149 -32.7917 -32.7917 -32.6366 -32.6366 -32.6203 -32.6203
    -5.9159  -5.9159  -5.6916  -5.6916  -5.4492  -5.4492  -5.3189  -5.3189
     5.6267   5.6267   5.7888   5.7888   6.1256   6.1256   6.2971   6.2971
     6.8727   6.8727   7.5430   7.5430   8.2490   8.2490   8.6326   8.6326
     8.8530   8.8530   9.3647   9.3647   9.7285   9.7285  10.7051  10.7051
    11.3541  11.3541  12.0605  12.0605  12.2624  12.2624  12.7582  12.7582
    13.6877  13.6877  14.3293  14.3293  15.1767  15.1767  15.8697  15.8697
    17.3422  17.3422  18.1610  18.1610  22.1137  22.1137

     occupation numbers 
     1.0000   1.0000   1.0000   1.0000   1.0000   1.0000   1.0000   1.0000
     1.0000   1.0000   1.0000   1.0000   1.0000   1.0000   1.0000   1.0000
     1.0000   1.0000   1.0000   1.0000   1.0000   1.0000   1.0000   1.0000
     1.0000   1.0000   1.0000   1.0000   1.0000   1.0000   1.0000   1.0000
     1.0000   1.0000   1.0000   1.0000   1.0000   1.0000   1.0000   1.0000
     1.0000   1.0000   1.0000   1.0000   1.0000   1.0000   1.0000   1.0000
     1.0000   1.0000   1.0000   1.0000   1.0000   1.0000   1.0000   1.0000
     1.0020   1.0020  -0.0000  -0.0000  -0.0000  -0.0000  -0.0000  -0.0000
    -0.0000  -0.0000  -0.0000  -0.0000  -0.0000  -0.0000

          k = 0.1667 0.3333-0.7124 (  5364 PWs)   bands (ev):

   -79.3788 -79.3788 -79.3788 -79.3788 -46.2310 -46.2310 -46.2295 -46.2295
   -32.8252 -32.8252 -32.8008 -32.8008 -32.6369 -32.6369 -32.6211 -32.6211
    -5.8317  -5.8317  -5.7251  -5.7251  -5.4343  -5.4343  -5.2509  -5.2509
     5.4834   5.4834   5.8248   5.8248   6.0617   6.0617   6.2186   6.2186
     7.0109   7.0109   7.9629   7.9629   8.3127   8.3127   8.6297   8.6297
     8.9072   8.9072   9.5494   9.5494   9.6553   9.6553  10.3188  10.3188
    11.5233  11.5233  11.8874  11.8874  12.0352  12.0352  12.5225  12.5225
    13.8162  13.8162  14.4873  14.4873  14.9915  14.9915  15.6696  15.6696
    17.4649  17.4649  18.2001  18.2001  22.9921  22.9921

     occupation numbers 
     1.0000   1.0000   1.0000   1.0000   1.0000   1.0000   1.0000   1.0000
     1.0000   1.0000   1.0000   1.0000   1.0000   1.0000   1.0000   1.0000
     1.0000   1.0000   1.0000   1.0000   1.0000   1.0000   1.0000   1.0000
     1.0000   1.0000   1.0000   1.0000   1.0000   1.0000   1.0000   1.0000
     1.0000   1.0000   1.0000   1.0000   1.0000   1.0000   1.0000   1.0000
     1.0000   1.0000   1.0000   1.0000   1.0000   1.0000   1.0000   1.0000
     1.0000   1.0000   1.0000   1.0000   1.0000   1.0000   1.0000   1.0000
     0.8615   0.8615  -0.0000  -0.0000  -0.0000  -0.0000  -0.0000  -0.0000
    -0.0000  -0.0000  -0.0000  -0.0000  -0.0000  -0.0000

          k = 0.1667-0.5000 0.0000 (  5372 PWs)   bands (ev):

   -79.3812 -79.3812 -79.3812 -79.3812 -46.2190 -46.2190 -46.2190 -46.2190
   -32.7563 -32.7563 -32.7563 -32.7563 -32.6153 -32.6153 -32.6153 -32.6153
    -6.3197  -6.3197  -6.3197  -6.3197  -5.2045  -5.2045  -5.2045  -5.2045
     5.1926   5.1926   5.1926   5.1926   6.1634   6.1634   6.1634   6.1634
     7.6393   7.6393   7.6393   7.6393   8.2727   8.2727   8.2727   8.2727
     8.9502   8.9502   8.9502   8.9502  10.5479  10.5479  10.5479  10.5479
    11.9890  11.9890  11.9890  11.9890  12.3350  12.3350  12.3350  12.3350
    13.7613  13.7613  13.7613  13.7613  17.0038  17.0038  17.0038  17.0038
    17.5639  17.5639  17.5639  17.5639  21.1082  21.1082

     occupation numbers 
     1.0000   1.0000   1.0000   1.0000   1.0000   1.0000   1.0000   1.0000
     1.0000   1.0000   1.0000   1.0000   1.0000   1.0000   1.0000   1.0000
     1.0000   1.0000   1.0000   1.0000   1.0000   1.0000   1.0000   1.0000
     1.0000   1.0000   1.0000   1.0000   1.0000   1.0000   1.0000   1.0000
     1.0000   1.0000   1.0000   1.0000   1.0000   1.0000   1.0000   1.0000
     1.0000   1.0000   1.0000   1.0000   1.0000   1.0000   1.0000   1.0000
     1.0000   1.0000   1.0000   1.0000   1.0000   1.0000   1.0000   1.0000
     1.0348   1.0348   1.0348   1.0348  -0.0000  -0.0000  -0.0000  -0.0000
    -0.0000  -0.0000  -0.0000  -0.0000  -0.0000  -0.0000

          k = 0.1667-0.5000 0.1781 (  5376 PWs)   bands (ev):

   -79.3808 -79.3808 -79.3808 -79.3808 -46.2210 -46.2210 -46.2204 -46.2204
   -32.7685 -32.7685 -32.7573 -32.7573 -32.6230 -32.6230 -32.6154 -32.6154
    -6.2211  -6.2211  -6.1971  -6.1971  -5.2794  -5.2794  -5.2524  -5.2524
     5.3053   5.3053   5.3702   5.3702   6.1710   6.1710   6.1740   6.1740
     7.7312   7.7312   7.7622   7.7622   8.1613   8.1613   8.1741   8.1741
     8.6155   8.6155   8.7202   8.7202  10.5156  10.5156  10.5363  10.5363
    11.9927  11.9927  12.0223  12.0223  12.5810  12.5810  12.6439  12.6439
    13.6164  13.6164  13.7755  13.7755  16.6606  16.6606  16.9046  16.9046
    17.3646  17.3646  17.4929  17.4929  21.4332  21.4463

     occupation numbers 
     1.0000   1.0000   1.0000   1.0000   1.0000   1.0000   1.0000   1.0000
     1.0000   1.0000   1.0000   1.0000   1.0000   1.0000   1.0000   1.0000
     1.0000   1.0000   1.0000   1.0000   1.0000   1.0000   1.0000   1.0000
     1.0000   1.0000   1.0000   1.0000   1.0000   1.0000   1.0000   1.0000
     1.0000   1.0000   1.0000   1.0000   1.0000   1.0000   1.0000   1.0000
     1.0000   1.0000   1.0000   1.0000   1.0000   1.0000   1.0000   1.0000
     1.0000   1.0000   1.0000   1.0000   1.0000   1.0000   1.0000   1.0000
     1.0000   1.0000   1.0317   1.0317  -0.0000  -0.0000  -0.0000  -0.0000
    -0.0000  -0.0000  -0.0000  -0.0000  -0.0000  -0.0000

          k = 0.1667-0.5000 0.3562 (  5384 PWs)   bands (ev):

   -79.3800 -79.3800 -79.3800 -79.3800 -46.2252 -46.2252 -46.2240 -46.2240
   -32.7917 -32.7917 -32.7713 -32.7713 -32.6324 -32.6324 -32.6188 -32.6188
    -5.9663  -5.9663  -5.9384  -5.9384  -5.4239  -5.4239  -5.3558  -5.3558
     5.5952   5.5952   5.6634   5.6634   6.2965   6.2965   6.3758   6.3758
     7.0619   7.0619   7.0653   7.0653   8.4000   8.4000   8.4409   8.4409
     8.8330   8.8330   8.8390   8.8390  10.2427  10.2427  10.2464  10.2464
    12.0776  12.0776  12.1557  12.1557  12.5737  12.5737  12.7740  12.7740
    13.5575  13.5575  13.9094  13.9094  15.9506  15.9506  16.0731  16.0731
    17.6253  17.6253  17.6670  17.6670  22.1044  22.1079

     occupation numbers 
     1.0000   1.0000   1.0000   1.0000   1.0000   1.0000   1.0000   1.0000
     1.0000   1.0000   1.0000   1.0000   1.0000   1.0000   1.0000   1.0000
     1.0000   1.0000   1.0000   1.0000   1.0000   1.0000   1.0000   1.0000
     1.0000   1.0000   1.0000   1.0000   1.0000   1.0000   1.0000   1.0000
     1.0000   1.0000   1.0000   1.0000   1.0000   1.0000   1.0000   1.0000
     1.0000   1.0000   1.0000   1.0000   1.0000   1.0000   1.0000   1.0000
     1.0000   1.0000   1.0000   1.0000   1.0000   1.0000   1.0000   1.0000
     1.0000   1.0000  -0.0089  -0.0089  -0.0000  -0.0000  -0.0000  -0.0000
    -0.0000  -0.0000  -0.0000  -0.0000  -0.0000  -0.0000

          k = 0.1667-0.5000 0.5343 (  5374 PWs)   bands (ev):

   -79.3792 -79.3792 -79.3792 -79.3792 -46.2294 -46.2294 -46.2278 -46.2278
   -32.8160 -32.8160 -32.7907 -32.7907 -32.6368 -32.6368 -32.6203 -32.6203
    -5.7955  -5.7955  -5.7867  -5.7867  -5.4653  -5.4653  -5.3281  -5.3281
     5.7045   5.7045   5.7098   5.7098   6.1077   6.1077   6.2174   6.2174
     7.1289   7.1289   7.2371   7.2371   8.4332   8.4332   8.5439   8.5439
     9.0689   9.0689   9.1543   9.1543  10.3164  10.3164  10.3294  10.3294
    11.7126  11.7126  11.7298  11.7298  12.1884  12.1884  12.4961  12.4961
    13.8529  13.8529  14.2228  14.2228  15.3900  15.3900  15.4149  15.4149
    17.8860  17.8860  18.0073  18.0073  22.8022  22.8066

     occupation numbers 
     1.0000   1.0000   1.0000   1.0000   1.0000   1.0000   1.0000   1.0000
     1.0000   1.0000   1.0000   1.0000   1.0000   1.0000   1.0000   1.0000
     1.0000   1.0000   1.0000   1.0000   1.0000   1.0000   1.0000   1.0000
     1.0000   1.0000   1.0000   1.0000   1.0000   1.0000   1.0000   1.0000
     1.0000   1.0000   1.0000   1.0000   1.0000   1.0000   1.0000   1.0000
     1.0000   1.0000   1.0000   1.0000   1.0000   1.0000   1.0000   1.0000
     1.0000   1.0000   1.0000   1.0000   1.0000   1.0000   1.0000   1.0000
     0.4530   0.4530  -0.0000  -0.0000  -0.0000  -0.0000  -0.0000  -0.0000
    -0.0000  -0.0000  -0.0000  -0.0000  -0.0000  -0.0000

          k = 0.1667-0.5000-0.7124 (  5348 PWs)   bands (ev):

   -79.3788 -79.3788 -79.3788 -79.3788 -46.2311 -46.2311 -46.2294 -46.2294
   -32.8265 -32.8265 -32.7997 -32.7997 -32.6376 -32.6376 -32.6203 -32.6203
    -5.7984  -5.7984  -5.7868  -5.7868  -5.4004  -5.4004  -5.2480  -5.2480
     5.5319   5.5319   5.5477   5.5477   6.1146   6.1146   6.1854   6.1854
     7.4572   7.4572   7.6561   7.6561   8.2884   8.2884   8.3636   8.3636
     9.2423   9.2423   9.3075   9.3075  10.5388  10.5388  10.5437  10.5437
    11.3705  11.3705  11.3939  11.3939  11.9234  11.9234  12.2675  12.2675
    14.0141  14.0141  14.3642  14.3642  15.1898  15.1898  15.2071  15.2071
    18.0089  18.0089  18.1516  18.1516  23.1672  23.1672

     occupation numbers 
     1.0000   1.0000   1.0000   1.0000   1.0000   1.0000   1.0000   1.0000
     1.0000   1.0000   1.0000   1.0000   1.0000   1.0000   1.0000   1.0000
     1.0000   1.0000   1.0000   1.0000   1.0000   1.0000   1.0000   1.0000
     1.0000   1.0000   1.0000   1.0000   1.0000   1.0000   1.0000   1.0000
     1.0000   1.0000   1.0000   1.0000   1.0000   1.0000   1.0000   1.0000
     1.0000   1.0000   1.0000   1.0000   1.0000   1.0000   1.0000   1.0000
     1.0000   1.0000   1.0000   1.0000   1.0000   1.0000   1.0000   1.0000
    -0.0016  -0.0016  -0.0000  -0.0000  -0.0000  -0.0000  -0.0000  -0.0000
    -0.0000  -0.0000  -0.0000  -0.0000  -0.0000  -0.0000

          k = 0.3333 0.3333 0.0000 (  5393 PWs)   bands (ev):

   -79.3813 -79.3813 -79.3810 -79.3810 -46.2204 -46.2204 -46.2177 -46.2177
   -32.7590 -32.7590 -32.7557 -32.7557 -32.6165 -32.6165 -32.6122 -32.6122
[...]
     1.0000   1.0000   1.0000   1.0000   1.0000   1.0000   1.0000   1.0000
     1.0000   1.0000   1.0019   1.0019  -0.0000  -0.0000  -0.0000  -0.0000
    -0.0000  -0.0000  -0.0000  -0.0000  -0.0000  -0.0000

          k = 0.3333-0.5000 0.5343 (  5370 PWs)   bands (ev):

   -79.3792 -79.3792 -79.3792 -79.3792 -46.2291 -46.2291 -46.2282 -46.2282
   -32.8108 -32.8108 -32.7962 -32.7962 -32.6334 -32.6334 -32.6239 -32.6239
    -5.7637  -5.7637  -5.7482  -5.7482  -5.4660  -5.4660  -5.3758  -5.3758
     5.5719   5.5719   5.5738   5.5738   6.0992   6.0992   6.2466   6.2466
     6.9972   6.9972   7.0699   7.0699   8.4258   8.4258   8.5184   8.5184
     9.3828   9.3828   9.3837   9.3837  10.3663  10.3663  10.3810  10.3810
    11.9763  11.9763  11.9947  11.9947  12.3140  12.3140  12.6098  12.6098
    13.5104  13.5104  13.8139  13.8139  15.8513  15.8513  15.8806  15.8806
    17.4148  17.4148  17.4708  17.4708  22.9101  22.9117

     occupation numbers 
     1.0000   1.0000   1.0000   1.0000   1.0000   1.0000   1.0000   1.0000
     1.0000   1.0000   1.0000   1.0000   1.0000   1.0000   1.0000   1.0000
     1.0000   1.0000   1.0000   1.0000   1.0000   1.0000   1.0000   1.0000
     1.0000   1.0000   1.0000   1.0000   1.0000   1.0000   1.0000   1.0000
     1.0000   1.0000   1.0000   1.0000   1.0000   1.0000   1.0000   1.0000
     1.0000   1.0000   1.0000   1.0000   1.0000   1.0000   1.0000   1.0000
     1.0000   1.0000   1.0000   1.0000   1.0000   1.0000   1.0000   1.0000
     1.0000   1.0000   0.8798   0.8798  -0.0000  -0.0000  -0.0000  -0.0000
    -0.0000  -0.0000  -0.0000  -0.0000  -0.0000  -0.0000

          k = 0.3333-0.5000-0.7124 (  5364 PWs)   bands (ev):

   -79.3788 -79.3788 -79.3788 -79.3788 -46.2308 -46.2308 -46.2298 -46.2298
   -32.8208 -32.8208 -32.8053 -32.8053 -32.6343 -32.6343 -32.6243 -32.6243
    -5.7202  -5.7202  -5.6820  -5.6820  -5.4721  -5.4721  -5.3523  -5.3523
     5.6663   5.6663   5.7456   5.7456   5.9810   5.9810   6.2107   6.2107
     6.9889   6.9889   7.0708   7.0708   8.1982   8.1982   8.3189   8.3189
     9.5735   9.5735   9.5853   9.5853  10.5874  10.5874  10.5960  10.5960
    11.8155  11.8155  11.9058  11.9058  12.0919  12.0919  12.4593  12.4593
    13.6292  13.6292  13.9331  13.9331  15.6589  15.6589  15.6605  15.6605
    17.4565  17.4565  17.5358  17.5358  23.1393  23.1395

     occupation numbers 
     1.0000   1.0000   1.0000   1.0000   1.0000   1.0000   1.0000   1.0000
     1.0000   1.0000   1.0000   1.0000   1.0000   1.0000   1.0000   1.0000
     1.0000   1.0000   1.0000   1.0000   1.0000   1.0000   1.0000   1.0000
     1.0000   1.0000   1.0000   1.0000   1.0000   1.0000   1.0000   1.0000
     1.0000   1.0000   1.0000   1.0000   1.0000   1.0000   1.0000   1.0000
     1.0000   1.0000   1.0000   1.0000   1.0000   1.0000   1.0000   1.0000
     1.0000   1.0000   1.0000   1.0000   1.0000   1.0000   1.0000   1.0000
     1.0000   1.0000  -0.0354  -0.0354  -0.0000  -0.0000  -0.0000  -0.0000
    -0.0000  -0.0000  -0.0000  -0.0000  -0.0000  -0.0000

          k =-0.5000-0.5000 0.0000 (  5412 PWs)   bands (ev):

   -79.3812 -79.3812 -79.3812 -79.3812 -46.2191 -46.2191 -46.2191 -46.2191
   -32.7583 -32.7583 -32.7583 -32.7583 -32.6135 -32.6135 -32.6135 -32.6135
    -6.4139  -6.4139  -6.4139  -6.4139  -5.0379  -5.0379  -5.0379  -5.0379
     4.3988   4.3988   4.3988   4.3988   6.0112   6.0112   6.0112   6.0112
     8.7370   8.7370   8.7370   8.7370   8.7765   8.7765   8.7765   8.7765
     9.5930   9.5930   9.5930   9.5930  10.3585  10.3585  10.3585  10.3585
    11.1225  11.1225  11.1225  11.1225  11.7476  11.7476  11.7476  11.7476
    14.0541  14.0541  14.0541  14.0541  16.2369  16.2369  16.2369  16.2369
    17.9268  17.9268  17.9268  17.9268  22.3948  22.3948

     occupation numbers 
     1.0000   1.0000   1.0000   1.0000   1.0000   1.0000   1.0000   1.0000
     1.0000   1.0000   1.0000   1.0000   1.0000   1.0000   1.0000   1.0000
     1.0000   1.0000   1.0000   1.0000   1.0000   1.0000   1.0000   1.0000
     1.0000   1.0000   1.0000   1.0000   1.0000   1.0000   1.0000   1.0000
     1.0000   1.0000   1.0000   1.0000   1.0000   1.0000   1.0000   1.0000
     1.0000   1.0000   1.0000   1.0000   1.0000   1.0000   1.0000   1.0000
     1.0000   1.0000   1.0000   1.0000   1.0000   1.0000   1.0000   1.0000
    -0.0001  -0.0001  -0.0001  -0.0001  -0.0000  -0.0000  -0.0000  -0.0000
    -0.0000  -0.0000  -0.0000  -0.0000  -0.0000  -0.0000

          k =-0.5000-0.5000 0.1781 (  5404 PWs)   bands (ev):

   -79.3808 -79.3808 -79.3808 -79.3808 -46.2207 -46.2207 -46.2207 -46.2207
   -32.7646 -32.7646 -32.7646 -32.7646 -32.6178 -32.6178 -32.6178 -32.6178
    -6.3017  -6.3017  -6.3017  -6.3017  -5.1097  -5.1097  -5.1097  -5.1097
     4.5642   4.5642   4.5642   4.5642   6.0134   6.0134   6.0134   6.0134
     8.7620   8.7620   8.7620   8.7620   8.9541   8.9541   8.9541   8.9541
     9.0711   9.0711   9.0711   9.0711   9.9097   9.9097   9.9097   9.9097
    11.5401  11.5401  11.5401  11.5401  12.1246  12.1246  12.1246  12.1246
    13.8875  13.8875  13.8875  13.8875  16.4387  16.4387  16.4387  16.4387
    17.5723  17.5723  17.5723  17.5723  22.6518  22.6518

     occupation numbers 
     1.0000   1.0000   1.0000   1.0000   1.0000   1.0000   1.0000   1.0000
     1.0000   1.0000   1.0000   1.0000   1.0000   1.0000   1.0000   1.0000
     1.0000   1.0000   1.0000   1.0000   1.0000   1.0000   1.0000   1.0000
     1.0000   1.0000   1.0000   1.0000   1.0000   1.0000   1.0000   1.0000
     1.0000   1.0000   1.0000   1.0000   1.0000   1.0000   1.0000   1.0000
     1.0000   1.0000   1.0000   1.0000   1.0000   1.0000   1.0000   1.0000
     1.0000   1.0000   1.0000   1.0000   1.0000   1.0000   1.0000   1.0000
     0.0969   0.0969   0.0969   0.0969  -0.0000  -0.0000  -0.0000  -0.0000
    -0.0000  -0.0000  -0.0000  -0.0000  -0.0000  -0.0000

          k =-0.5000-0.5000 0.3562 (  5388 PWs)   bands (ev):

   -79.3800 -79.3800 -79.3800 -79.3800 -46.2247 -46.2247 -46.2247 -46.2247
   -32.7824 -32.7824 -32.7824 -32.7824 -32.6250 -32.6250 -32.6250 -32.6250
    -6.0236  -6.0236  -6.0236  -6.0236  -5.2775  -5.2775  -5.2775  -5.2775
     4.9998   4.9998   4.9998   4.9998   6.0662   6.0662   6.0662   6.0662
     7.8335   7.8335   7.8335   7.8335   8.9018   8.9018   8.9018   8.9018
     9.1846   9.1846   9.1846   9.1846   9.8903   9.8903   9.8903   9.8903
    11.9075  11.9075  11.9075  11.9075  12.6909  12.6909  12.6909  12.6909
    13.4798  13.4798  13.4798  13.4798  16.6065  16.6065  16.6065  16.6065
    17.0697  17.0697  17.0697  17.0697  22.9379  22.9379

     occupation numbers 
     1.0000   1.0000   1.0000   1.0000   1.0000   1.0000   1.0000   1.0000
     1.0000   1.0000   1.0000   1.0000   1.0000   1.0000   1.0000   1.0000
     1.0000   1.0000   1.0000   1.0000   1.0000   1.0000   1.0000   1.0000
     1.0000   1.0000   1.0000   1.0000   1.0000   1.0000   1.0000   1.0000
     1.0000   1.0000   1.0000   1.0000   1.0000   1.0000   1.0000   1.0000
     1.0000   1.0000   1.0000   1.0000   1.0000   1.0000   1.0000   1.0000
     1.0000   1.0000   1.0000   1.0000   1.0000   1.0000   1.0000   1.0000
     1.0000   1.0000   1.0000   1.0000  -0.0000  -0.0000  -0.0000  -0.0000
    -0.0000  -0.0000  -0.0000  -0.0000  -0.0000  -0.0000

          k =-0.5000-0.5000 0.5343 (  5360 PWs)   bands (ev):

   -79.3792 -79.3792 -79.3792 -79.3792 -46.2286 -46.2286 -46.2286 -46.2286
   -32.8035 -32.8035 -32.8035 -32.8035 -32.6287 -32.6287 -32.6287 -32.6287
    -5.7377  -5.7377  -5.7377  -5.7377  -5.4337  -5.4337  -5.4337  -5.4337
     5.5021   5.5021   5.5021   5.5021   6.1790   6.1790   6.1790   6.1790
     6.9826   6.9826   6.9826   6.9826   8.4584   8.4584   8.4584   8.4584
     9.4889   9.4889   9.4889   9.4889  10.4324  10.4324  10.4324  10.4324
    11.9748  11.9748  11.9748  11.9748  12.8014  12.8014  12.8014  12.8014
    13.3276  13.3276  13.3276  13.3276  16.2328  16.2328  16.2328  16.2328
    17.0524  17.0524  17.0524  17.0524  23.0932  23.0932

     occupation numbers 
     1.0000   1.0000   1.0000   1.0000   1.0000   1.0000   1.0000   1.0000
     1.0000   1.0000   1.0000   1.0000   1.0000   1.0000   1.0000   1.0000
     1.0000   1.0000   1.0000   1.0000   1.0000   1.0000   1.0000   1.0000
     1.0000   1.0000   1.0000   1.0000   1.0000   1.0000   1.0000   1.0000
     1.0000   1.0000   1.0000   1.0000   1.0000   1.0000   1.0000   1.0000
     1.0000   1.0000   1.0000   1.0000   1.0000   1.0000   1.0000   1.0000
     1.0000   1.0000   1.0000   1.0000   1.0000   1.0000   1.0000   1.0000
     1.0000   1.0000   1.0000   1.0000  -0.0000  -0.0000  -0.0000  -0.0000
    -0.0000  -0.0000  -0.0000  -0.0000  -0.0000  -0.0000

          k =-0.5000-0.5000-0.7124 (  5384 PWs)   bands (ev):

   -79.3788 -79.3788 -79.3788 -79.3788 -46.2303 -46.2303 -46.2303 -46.2303
   -32.8130 -32.8130 -32.8130 -32.8130 -32.6294 -32.6294 -32.6294 -32.6294
    -5.6293  -5.6293  -5.6293  -5.6293  -5.4822  -5.4822  -5.4822  -5.4822
     5.7394   5.7394   5.7394   5.7394   6.2391   6.2391   6.2391   6.2391
     6.6653   6.6653   6.6653   6.6653   8.2632   8.2632   8.2632   8.2632
     9.6582   9.6582   9.6582   9.6582  10.6667  10.6667  10.6667  10.6667
    11.9401  11.9401  11.9401  11.9401  12.6166  12.6166  12.6166  12.6166
    13.4494  13.4494  13.4494  13.4494  16.0750  16.0750  16.0750  16.0750
    17.0251  17.0251  17.0251  17.0251  23.0646  23.0646

     occupation numbers 
     1.0000   1.0000   1.0000   1.0000   1.0000   1.0000   1.0000   1.0000
     1.0000   1.0000   1.0000   1.0000   1.0000   1.0000   1.0000   1.0000
     1.0000   1.0000   1.0000   1.0000   1.0000   1.0000   1.0000   1.0000
     1.0000   1.0000   1.0000   1.0000   1.0000   1.0000   1.0000   1.0000
     1.0000   1.0000   1.0000   1.0000   1.0000   1.0000   1.0000   1.0000
     1.0000   1.0000   1.0000   1.0000   1.0000   1.0000   1.0000   1.0000
     1.0000   1.0000   1.0000   1.0000   1.0000   1.0000   1.0000   1.0000
     1.0000   1.0000   1.0000   1.0000  -0.0000  -0.0000  -0.0000  -0.0000
    -0.0000  -0.0000  -0.0000  -0.0000  -0.0000  -0.0000

     the Fermi energy is    13.8491 ev

!    total energy              =    -553.08019281 Ry
     estimated scf accuracy    <          1.7E-11 Ry
     smearing contrib. (-TS)   =      -0.00009385 Ry
     internal energy E=F+TS    =    -553.08009896 Ry

     The total energy is F=E-TS. E is the sum of the following terms:
     one-electron contribution =    -190.91066124 Ry
     hartree contribution      =     122.73076122 Ry
     xc contribution           =     -69.91418843 Ry
     ewald contribution        =    -414.98601052 Ry

     convergence has been achieved in  10 iterations

     Forces acting on atoms (cartesian axes, Ry/au):

     atom    1 type  2   force =     0.00000000    0.00000000    0.00000000
     atom    2 type  2   force =     0.00000000    0.00000000    0.00000000
     atom    3 type  1   force =     0.00102178   -0.00102178    0.00000000
     atom    4 type  1   force =    -0.00102178   -0.00102178   -0.00000000
     atom    5 type  1   force =     0.00102178    0.00102178   -0.00000000
     atom    6 type  1   force =    -0.00102178    0.00102178    0.00000000
     The non-local contrib.  to forces
     atom    1 type  2   force =     0.00000000    0.00000000    0.00000000
     atom    2 type  2   force =     0.00000000    0.00000000   -0.00000000
     atom    3 type  1   force =    -0.05390806    0.05390806    0.00000000
     atom    4 type  1   force =     0.05390806    0.05390806    0.00000000
     atom    5 type  1   force =    -0.05390806   -0.05390806    0.00000000
     atom    6 type  1   force =     0.05390806   -0.05390806    0.00000000
     The ionic contribution  to forces
     atom    1 type  2   force =    -0.00000000   -0.00000000    0.00000000
     atom    2 type  2   force =     0.00000000    0.00000000   -0.00000000
     atom    3 type  1   force =     1.42937233   -1.42937233    0.00000000
     atom    4 type  1   force =    -1.42937233   -1.42937233   -0.00000000
     atom    5 type  1   force =     1.42937233    1.42937233    0.00000000
     atom    6 type  1   force =    -1.42937233    1.42937233    0.00000000
     The local contribution  to forces
     atom    1 type  2   force =     0.00000000    0.00000000    0.00000000
     atom    2 type  2   force =     0.00000000    0.00000000    0.00000000
     atom    3 type  1   force =    -1.37444204    1.37444204    0.00000000
     atom    4 type  1   force =     1.37444204    1.37444204    0.00000000
     atom    5 type  1   force =    -1.37444204   -1.37444204    0.00000000
     atom    6 type  1   force =     1.37444204   -1.37444204    0.00000000
     The core correction contribution to forces
     atom    1 type  2   force =     0.00000000    0.00000000    0.00000000
     atom    2 type  2   force =     0.00000000    0.00000000    0.00000000
     atom    3 type  1   force =     0.00000000    0.00000000    0.00000000
     atom    4 type  1   force =     0.00000000    0.00000000    0.00000000
     atom    5 type  1   force =     0.00000000    0.00000000    0.00000000
     atom    6 type  1   force =     0.00000000    0.00000000    0.00000000
     The Hubbard contrib.    to forces
     atom    1 type  2   force =     0.00000000    0.00000000    0.00000000
     atom    2 type  2   force =     0.00000000    0.00000000    0.00000000
     atom    3 type  1   force =     0.00000000    0.00000000    0.00000000
     atom    4 type  1   force =     0.00000000    0.00000000    0.00000000
     atom    5 type  1   force =     0.00000000    0.00000000    0.00000000
     atom    6 type  1   force =     0.00000000    0.00000000    0.00000000
     The SCF correction term to forces
     atom    1 type  2   force =     0.00000000   -0.00000000   -0.00000000
     atom    2 type  2   force =     0.00000000    0.00000000    0.00000000
     atom    3 type  1   force =    -0.00000045    0.00000045    0.00000000
     atom    4 type  1   force =     0.00000045    0.00000045    0.00000000
     atom    5 type  1   force =    -0.00000045   -0.00000045    0.00000000
     atom    6 type  1   force =     0.00000045   -0.00000045    0.00000000

     Total force =     0.002890     Total SCF correction =     0.000001


     Computing stress (Cartesian axis) and pressure

          total   stress  (Ry/bohr**3)                   (kbar)     P=      -20.62
  -0.00012474   0.00000000   0.00000000          -18.35        0.00        0.00
   0.00000000  -0.00012474   0.00000000            0.00      -18.35        0.00
   0.00000000   0.00000000  -0.00017095            0.00        0.00      -25.15

     kinetic stress (kbar)  48456.09      0.00      0.00
                                0.00  48456.09      0.00
                                0.00      0.00  47520.44

     local   stress (kbar) -12690.97      0.00     -0.00
                                0.00 -12690.97     -0.00
                               -0.00     -0.00 -44391.35

     nonloc. stress (kbar)  14529.08      0.00      0.00
                                0.00  14529.08      0.00
                                0.00      0.00  14740.18

     hartree stress (kbar)   9611.79      0.00      0.00
                                0.00   9611.79     -0.00
                                0.00     -0.00  21376.50

     exc-cor stress (kbar)  -7288.12     -0.00      0.00
                               -0.00  -7288.12      0.00
                                0.00      0.00  -7263.47

     corecor stress (kbar)      0.00      0.00      0.00
                                0.00      0.00      0.00
                                0.00      0.00      0.00

     ewald   stress (kbar) -52636.21     -0.00     -0.00
                               -0.00 -52636.21     -0.00
                               -0.00     -0.00 -32007.45

     hubbard stress (kbar)      0.00      0.00      0.00
                                0.00      0.00      0.00
                                0.00      0.00      0.00

     DFT-D   stress (kbar)      0.00      0.00      0.00
                                0.00      0.00      0.00
                                0.00      0.00      0.00

     XDM     stress (kbar)      0.00      0.00      0.00
                                0.00      0.00      0.00
                                0.00      0.00      0.00

     dft-nl  stress (kbar)      0.00      0.00      0.00
                                0.00      0.00      0.00
                                0.00      0.00      0.00

     TS-vdW  stress (kbar)      0.00      0.00      0.00
                                0.00      0.00      0.00
                                0.00      0.00      0.00


                                0.00      0.00      0.00
                                0.00      0.00      0.00


                                0.00      0.00      0.00


     Writing all to output data dir tmp/espresso.save/
 
     init_run     :      5.06s CPU      2.63s WALL (       1 calls)
     electrons    :    173.54s CPU     88.91s WALL (       1 calls)
     forces       :      8.80s CPU      4.51s WALL (       1 calls)
     stress       :     12.94s CPU      6.54s WALL (       1 calls)

     Called by init_run:
     wfcinit      :      5.00s CPU      2.57s WALL (       1 calls)
     wfcinit:atom :      0.02s CPU      0.01s WALL (      50 calls)
     wfcinit:wfcr :      4.86s CPU      2.49s WALL (      50 calls)
     potinit      :      0.02s CPU      0.01s WALL (       1 calls)
     hinit0       :      0.04s CPU      0.03s WALL (       1 calls)

     Called by electrons:
     c_bands      :    159.26s CPU     81.57s WALL (      10 calls)
     sum_band     :     14.13s CPU      7.24s WALL (      10 calls)
     v_of_rho     :      0.05s CPU      0.03s WALL (      11 calls)
     v_h          :      0.01s CPU      0.00s WALL (      11 calls)
     v_xc         :      0.04s CPU      0.02s WALL (      11 calls)
     mix_rho      :      0.05s CPU      0.02s WALL (      10 calls)

     Called by c_bands:
     init_us_2    :      0.46s CPU      0.24s WALL (    1150 calls)
     init_us_2:cp :      0.45s CPU      0.24s WALL (    1150 calls)
     cegterg      :    146.99s CPU     75.29s WALL (     500 calls)

     Called by sum_band:
     sum_band:wei :      0.09s CPU      0.05s WALL (      10 calls)
     sum_band:loo :     14.02s CPU      7.19s WALL (      10 calls)
     sum_band:buf :      0.08s CPU      0.04s WALL (     500 calls)
     sum_band:ini :      0.15s CPU      0.08s WALL (     500 calls)

     Called by *egterg:
     cdiaghg      :     22.14s CPU     11.26s WALL (    1784 calls)
     cegterg:over :      9.09s CPU      4.62s WALL (    1284 calls)
     cegterg:upda :      7.31s CPU      3.72s WALL (    1284 calls)
     cegterg:last :     12.50s CPU      6.37s WALL (    1000 calls)
     cdiaghg:chol :      1.02s CPU      0.52s WALL (    1784 calls)
     cdiaghg:inve :      0.16s CPU      0.08s WALL (    1784 calls)
     cdiaghg:para :      2.27s CPU      1.16s WALL (    3568 calls)
     h_psi        :     96.89s CPU     49.83s WALL (    1834 calls)
     g_psi        :      0.14s CPU      0.07s WALL (    1284 calls)

     Called by h_psi:
     h_psi:calbec :     11.73s CPU      6.14s WALL (    1834 calls)
     vloc_psi     :     68.14s CPU     35.03s WALL (    1834 calls)
     add_vuspsi   :     16.81s CPU      8.55s WALL (    1834 calls)

     General routines
     calbec       :     15.75s CPU      8.22s WALL (    2084 calls)
     fft          :      0.06s CPU      0.03s WALL (     150 calls)
     ffts         :      0.01s CPU      0.01s WALL (      40 calls)
     fftw         :     77.03s CPU     39.59s WALL (  430240 calls)
 
     Parallel routines
 
     PWSCF        :   3m26.10s CPU   1m47.58s WALL

 
   This run was terminated on:  10:57:55  10Apr2022            

=------------------------------------------------------------------------------=
   JOB DONE.
=------------------------------------------------------------------------------=
