
     Program PROJWFC v.7.3.1 starts on 26Mar2024 at 20:59:12 

     This program is part of the open-source Quantum ESPRESSO suite
     for quantum simulation of materials; please cite
         "P. Giannozzi et al., J. Phys.:Condens. Matter 21 395502 (2009);
         "P. Giannozzi et al., J. Phys.:Condens. Matter 29 465901 (2017);
         "P. Giannozzi et al., J. Chem. Phys. 152 154105 (2020);
          URL http://www.quantum-espresso.org", 
     in publications or presentations arising from this work. More details at
     http://www.quantum-espresso.org/quote

     Parallel version (MPI & OpenMP), running on       4 processor cores
     Number of MPI processes:                 4
     Threads/MPI process:                     1

     MPI processes distributed on     2 nodes
     R & G space division:  proc/nbgrp/npool/nimage =       4
     21736 MiB available memory on the printing compute node when the environment starts


     Reading xml data from directory:

     ./TMP/zno.save/
     file Zn.pbesol-spn-rrkjus_gipaw.1.0.0.UPF: wavefunction(s)  3P renormalized

     IMPORTANT: XC functional enforced from input :
     Exchange-correlation= PBESOL
                           (   1   4  10   8   0   0   0)
     Any further DFT definition will be discarded
     Please, verify this is what you really want


     Parallelization info
     --------------------
     sticks:   dense  smooth     PW     G-vecs:    dense   smooth      PW
     Min         382     153     49                19836     5019     919
     Max         383     154     50                19845     5020     926
     Sum        1531     613    199                79367    20077    3693

     Using Slab Decomposition


     Gaussian broadening (read from input): ngauss,degauss=  -1    0.007500


     Calling projwave .... 
     Subspace diagonalization in iterative solution of the eigenvalue problem:
     a serial algorithm will be used


  Problem Sizes 
  natomwfc =           28
  nbnd     =           50
  nkstot   =          192
  npwx     =          678
  nkb      =           52


     Atomic states used for projection
     (read from pseudopotential files):

     state #   1: atom   1 (Zn ), wfc  1 (l=0 m= 1)
     state #   2: atom   1 (Zn ), wfc  2 (l=0 m= 1)
     state #   3: atom   1 (Zn ), wfc  3 (l=1 m= 1)
     state #   4: atom   1 (Zn ), wfc  3 (l=1 m= 2)
     state #   5: atom   1 (Zn ), wfc  3 (l=1 m= 3)
     state #   6: atom   1 (Zn ), wfc  4 (l=2 m= 1)
     state #   7: atom   1 (Zn ), wfc  4 (l=2 m= 2)
     state #   8: atom   1 (Zn ), wfc  4 (l=2 m= 3)
     state #   9: atom   1 (Zn ), wfc  4 (l=2 m= 4)
     state #  10: atom   1 (Zn ), wfc  4 (l=2 m= 5)
     state #  11: atom   2 (Zn ), wfc  1 (l=0 m= 1)
     state #  12: atom   2 (Zn ), wfc  2 (l=0 m= 1)
     state #  13: atom   2 (Zn ), wfc  3 (l=1 m= 1)
     state #  14: atom   2 (Zn ), wfc  3 (l=1 m= 2)
     state #  15: atom   2 (Zn ), wfc  3 (l=1 m= 3)
     state #  16: atom   2 (Zn ), wfc  4 (l=2 m= 1)
     state #  17: atom   2 (Zn ), wfc  4 (l=2 m= 2)
     state #  18: atom   2 (Zn ), wfc  4 (l=2 m= 3)
     state #  19: atom   2 (Zn ), wfc  4 (l=2 m= 4)
     state #  20: atom   2 (Zn ), wfc  4 (l=2 m= 5)
     state #  21: atom   3 (O  ), wfc  1 (l=0 m= 1)
     state #  22: atom   3 (O  ), wfc  2 (l=1 m= 1)
     state #  23: atom   3 (O  ), wfc  2 (l=1 m= 2)
     state #  24: atom   3 (O  ), wfc  2 (l=1 m= 3)
     state #  25: atom   4 (O  ), wfc  1 (l=0 m= 1)
     state #  26: atom   4 (O  ), wfc  2 (l=1 m= 1)
     state #  27: atom   4 (O  ), wfc  2 (l=1 m= 2)
     state #  28: atom   4 (O  ), wfc  2 (l=1 m= 3)

 k =   0.0333333333  0.0577350269  0.0516614486
==== e(   1) =  -114.31736 eV ==== 
     psi = 0.496*[#   1]+0.496*[#  11]+0.004*[#   2]+0.004*[#  12]
    |psi|^2 = 1.000
==== e(   2) =  -114.31698 eV ==== 
     psi = 0.497*[#   1]+0.497*[#  11]+0.002*[#  22]+0.002*[#  26]
    |psi|^2 = 1.000
==== e(   3) =   -68.65497 eV ==== 
     psi = 0.499*[#   3]+0.499*[#  13]
    |psi|^2 = 1.000
==== e(   4) =   -68.65259 eV ==== 
     psi = 0.498*[#   3]+0.498*[#  13]+0.001*[#   4]+0.001*[#   5]+0.001*[#  14]
          +0.001*[#  15]
    |psi|^2 = 1.000
==== e(   5) =   -68.64798 eV ==== 
     psi = 0.250*[#   4]+0.250*[#   5]+0.250*[#  14]+0.250*[#  15]
    |psi|^2 = 1.000
==== e(   6) =   -68.64759 eV ==== 
     psi = 0.250*[#   4]+0.250*[#   5]+0.250*[#  14]+0.250*[#  15]
    |psi|^2 = 1.000
==== e(   7) =   -68.64688 eV ==== 
     psi = 0.249*[#   4]+0.249*[#   5]+0.249*[#  14]+0.249*[#  15]+0.002*[#   3]
          +0.002*[#  13]
    |psi|^2 = 1.000
==== e(   8) =   -68.64658 eV ==== 
     psi = 0.250*[#   4]+0.250*[#   5]+0.250*[#  14]+0.250*[#  15]
    |psi|^2 = 1.000
==== e(   9) =    -9.20175 eV ==== 
     psi = 0.346*[#  21]+0.346*[#  25]+0.151*[#   2]+0.151*[#  12]+0.002*[#   1]
          +0.002*[#  11]
    |psi|^2 = 0.998
==== e(  10) =    -8.48914 eV ==== 
     psi = 0.448*[#  21]+0.448*[#  25]+0.035*[#   2]+0.035*[#  12]+0.014*[#   6]
          +0.014*[#  16]
    |psi|^2 = 0.996
==== e(  11) =     3.03639 eV ==== 
     psi = 0.112*[#   9]+0.112*[#  10]+0.112*[#  19]+0.112*[#  20]+0.055*[#  23]
          +0.055*[#  24]+0.055*[#  27]+0.055*[#  28]+0.053*[#   6]+0.053*[#  16]
          +0.046*[#   7]+0.046*[#   8]+0.046*[#  17]+0.046*[#  18]+0.015*[#  22]
          +0.015*[#  26]+0.003*[#   2]+0.003*[#  12]
    |psi|^2 = 0.999
==== e(  12) =     3.06779 eV ==== 
     psi = 0.130*[#  22]+0.130*[#  26]+0.083*[#   9]+0.083*[#  10]+0.083*[#  19]
          +0.083*[#  20]+0.038*[#  23]+0.038*[#  24]+0.038*[#  27]+0.038*[#  28]
          +0.034*[#   7]+0.034*[#   8]+0.034*[#  17]+0.034*[#  18]+0.028*[#   2]
          +0.028*[#  12]+0.021*[#   6]+0.021*[#  16]+0.002*[#  21]+0.002*[#  25]
          
    |psi|^2 = 0.987
==== e(  13) =     3.09084 eV ==== 
     psi = 0.201*[#  22]+0.201*[#  26]+0.056*[#   9]+0.056*[#  10]+0.056*[#  19]
          +0.056*[#  20]+0.043*[#   2]+0.043*[#  12]+0.033*[#   6]+0.033*[#  16]
          +0.025*[#  23]+0.025*[#  24]+0.025*[#  27]+0.025*[#  28]+0.022*[#   7]
          +0.022*[#   8]+0.022*[#  17]+0.022*[#  18]+0.003*[#  21]+0.003*[#  25]
          
    |psi|^2 = 0.981
==== e(  14) =     3.11503 eV ==== 
     psi = 0.326*[#   6]+0.326*[#  16]+0.102*[#  22]+0.102*[#  26]+0.022*[#   9]
          +0.022*[#  10]+0.022*[#  19]+0.022*[#  20]+0.008*[#  23]+0.008*[#  24]
          +0.008*[#  27]+0.008*[#  28]+0.005*[#   7]+0.005*[#   8]+0.005*[#  17]
          +0.005*[#  18]
    |psi|^2 = 0.999
==== e(  15) =     3.25378 eV ==== 
     psi = 0.175*[#   9]+0.175*[#  10]+0.175*[#  19]+0.175*[#  20]+0.059*[#  23]
          +0.059*[#  24]+0.059*[#  27]+0.059*[#  28]+0.008*[#  22]+0.008*[#  26]
          +0.007*[#   7]+0.007*[#   8]+0.007*[#  17]+0.007*[#  18]+0.006*[#   6]
          +0.006*[#  16]+0.003*[#   2]+0.003*[#  12]
    |psi|^2 = 0.997
==== e(  16) =     3.26822 eV ==== 
     psi = 0.181*[#   9]+0.181*[#  10]+0.181*[#  19]+0.181*[#  20]+0.060*[#  23]
          +0.060*[#  24]+0.060*[#  27]+0.060*[#  28]+0.008*[#   7]+0.008*[#   8]
          +0.008*[#  17]+0.008*[#  18]
    |psi|^2 = 0.998
==== e(  17) =     4.25715 eV ==== 
     psi = 0.178*[#   7]+0.178*[#   8]+0.178*[#  17]+0.178*[#  18]+0.071*[#   9]
          +0.071*[#  10]+0.071*[#  19]+0.071*[#  20]+0.001*[#   6]+0.001*[#  16]
          
    |psi|^2 = 0.999
==== e(  18) =     4.26335 eV ==== 
     psi = 0.176*[#   7]+0.176*[#   8]+0.176*[#  17]+0.176*[#  18]+0.074*[#   9]
          +0.074*[#  10]+0.074*[#  19]+0.074*[#  20]
    |psi|^2 = 0.999
==== e(  19) =     4.47351 eV ==== 
     psi = 0.239*[#   7]+0.239*[#   8]+0.239*[#  17]+0.239*[#  18]+0.010*[#   9]
          +0.010*[#  10]+0.010*[#  19]+0.010*[#  20]
    |psi|^2 = 1.000
==== e(  20) =     4.48317 eV ==== 
     psi = 0.237*[#   7]+0.237*[#   8]+0.237*[#  17]+0.237*[#  18]+0.009*[#   9]
          +0.009*[#  10]+0.009*[#  19]+0.009*[#  20]+0.004*[#   6]+0.004*[#  16]
          +0.003*[#  22]+0.003*[#  26]
    |psi|^2 = 0.999
==== e(  21) =     4.83476 eV ==== 
     psi = 0.420*[#   6]+0.420*[#  16]+0.050*[#  22]+0.050*[#  26]+0.014*[#   2]
          +0.014*[#  12]+0.010*[#  21]+0.010*[#  25]+0.001*[#   7]+0.001*[#   8]
          +0.001*[#  17]+0.001*[#  18]
    |psi|^2 = 0.995
==== e(  22) =     7.90646 eV ==== 
     psi = 0.181*[#  23]+0.181*[#  24]+0.181*[#  27]+0.181*[#  28]+0.059*[#   9]
          +0.059*[#  10]+0.059*[#  19]+0.059*[#  20]+0.002*[#   2]+0.003*[#   7]
          +0.003*[#   8]+0.002*[#  12]+0.003*[#  17]+0.003*[#  18]
    |psi|^2 = 0.978
==== e(  23) =     7.98075 eV ==== 
     psi = 0.184*[#  23]+0.184*[#  24]+0.184*[#  27]+0.184*[#  28]+0.057*[#   9]
          +0.057*[#  10]+0.057*[#  19]+0.057*[#  20]+0.003*[#   7]+0.003*[#   8]
          +0.003*[#  17]+0.003*[#  18]
    |psi|^2 = 0.981
==== e(  24) =     8.36832 eV ==== 
     psi = 0.144*[#  22]+0.144*[#  26]+0.068*[#   2]+0.068*[#  12]+0.066*[#  23]
          +0.066*[#  24]+0.066*[#  27]+0.066*[#  28]+0.056*[#   6]+0.056*[#  16]
          +0.037*[#  21]+0.037*[#  25]+0.020*[#   9]+0.020*[#  10]+0.020*[#  19]
          +0.020*[#  20]+0.010*[#   7]+0.010*[#   8]+0.010*[#  17]+0.010*[#  18]
          
    |psi|^2 = 0.991
==== e(  25) =     8.71676 eV ==== 
     psi = 0.195*[#  22]+0.195*[#  26]+0.089*[#  23]+0.089*[#  24]+0.089*[#  27]
          +0.089*[#  28]+0.058*[#   6]+0.058*[#  16]+0.021*[#   9]+0.021*[#  10]
          +0.021*[#  19]+0.021*[#  20]+0.010*[#   7]+0.010*[#   8]+0.010*[#  17]
          +0.010*[#  18]+0.001*[#   2]+0.001*[#  12]
    |psi|^2 = 0.991
==== e(  26) =     8.77885 eV ==== 
     psi = 0.186*[#  23]+0.186*[#  24]+0.186*[#  27]+0.186*[#  28]+0.042*[#   9]
          +0.042*[#  10]+0.042*[#  19]+0.042*[#  20]+0.020*[#   7]+0.020*[#   8]
          +0.020*[#  17]+0.020*[#  18]
    |psi|^2 = 0.991
==== e(  27) =    10.02531 eV ==== 
     psi = 0.269*[#   2]+0.269*[#  12]+0.113*[#  21]+0.113*[#  25]+0.037*[#  22]
          +0.037*[#  26]+0.031*[#  23]+0.031*[#  24]+0.031*[#  27]+0.031*[#  28]
          +0.004*[#   6]+0.004*[#  16]+0.003*[#   9]+0.003*[#  10]+0.003*[#  19]
          +0.003*[#  20]+0.001*[#   7]+0.001*[#   8]+0.001*[#  17]+0.001*[#  18]
          +0.001*[#   1]+0.001*[#  11]
    |psi|^2 = 0.990
==== e(  28) =    14.08573 eV ==== 
     psi = 0.287*[#   2]+0.287*[#  12]+0.040*[#  22]+0.040*[#  26]+0.031*[#  21]
          +0.031*[#  25]+0.003*[#  23]+0.003*[#  24]+0.003*[#  27]+0.003*[#  28]
          
    |psi|^2 = 0.730
==== e(  29) =    16.97744 eV ==== 
     psi = 0.077*[#   2]+0.077*[#  12]+0.059*[#  22]+0.059*[#  26]+0.002*[#  21]
          +0.002*[#  25]+0.001*[#   6]+0.001*[#  16]
    |psi|^2 = 0.280
==== e(  30) =    21.27853 eV ==== 

    |psi|^2 = 0.003
==== e(  31) =    21.71619 eV ==== 

    |psi|^2 = 0.003
==== e(  32) =    22.51878 eV ==== 

    |psi|^2 = 0.003
==== e(  33) =    22.64355 eV ==== 
     psi = 0.003*[#  23]+0.003*[#  24]+0.003*[#  27]+0.003*[#  28]+0.001*[#   2]
          +0.001*[#  12]
    |psi|^2 = 0.015
==== e(  34) =    22.95970 eV ==== 
     psi = 0.003*[#  23]+0.003*[#  24]+0.003*[#  27]+0.003*[#  28]
    |psi|^2 = 0.012
==== e(  35) =    25.32771 eV ==== 

    |psi|^2 = 0.001
==== e(  36) =    26.59153 eV ==== 

    |psi|^2 = 0.001
==== e(  37) =    27.05055 eV ==== 

    |psi|^2 = 0.001
==== e(  38) =    28.42969 eV ==== 

    |psi|^2 = 0.002
==== e(  39) =    29.10511 eV ==== 

    |psi|^2 = 0.001
==== e(  40) =    29.26426 eV ==== 
     psi = 0.001*[#  22]+0.001*[#  26]
    |psi|^2 = 0.004
==== e(  41) =    30.47912 eV ==== 

    |psi|^2 = 0.002
==== e(  42) =    32.30539 eV ==== 
     psi = 0.003*[#  22]+0.003*[#  26]+0.002*[#   2]+0.002*[#  12]
    |psi|^2 = 0.011
==== e(  43) =    33.22216 eV ==== 

    |psi|^2 = 0.006
==== e(  44) =    33.55163 eV ==== 
     psi = 0.001*[#  23]+0.001*[#  24]+0.001*[#  27]+0.001*[#  28]
    |psi|^2 = 0.005
==== e(  45) =    36.74580 eV ==== 

    |psi|^2 = 0.006
==== e(  46) =    36.77540 eV ==== 
     psi = 0.003*[#   2]+0.003*[#  12]+0.001*[#  21]+0.001*[#  25]
    |psi|^2 = 0.008
==== e(  47) =    37.07360 eV ==== 
     psi = 0.001*[#  23]+0.001*[#  24]+0.001*[#  27]+0.001*[#  28]
    |psi|^2 = 0.006
==== e(  48) =    37.46738 eV ==== 
     psi = 0.002*[#  22]+0.002*[#  26]
    |psi|^2 = 0.006
==== e(  49) =    39.69635 eV ==== 

    |psi|^2 = 0.001
==== e(  50) =    39.70586 eV ==== 

    |psi|^2 = 0.001

 k =   0.0333333333  0.0577350269  0.1549843459
==== e(   1) =  -114.31697 eV ==== 
     psi = 0.497*[#   1]+0.497*[#  11]+0.003*[#   2]+0.003*[#  12]
    |psi|^2 = 1.000
==== e(   2) =  -114.31682 eV ==== 
     psi = 0.498*[#   1]+0.498*[#  11]+0.002*[#  22]+0.002*[#  26]
    |psi|^2 = 1.000
==== e(   3) =   -68.65426 eV ==== 
     psi = 0.499*[#   3]+0.499*[#  13]
    |psi|^2 = 1.000
==== e(   4) =   -68.65186 eV ==== 
     psi = 0.499*[#   3]+0.499*[#  13]
    |psi|^2 = 1.000
==== e(   5) =   -68.64746 eV ==== 
     psi = 0.250*[#   4]+0.250*[#   5]+0.250*[#  14]+0.250*[#  15]
    |psi|^2 = 1.000
==== e(   6) =   -68.64714 eV ==== 
     psi = 0.250*[#   4]+0.250*[#   5]+0.250*[#  14]+0.250*[#  15]
    |psi|^2 = 1.000
==== e(   7) =   -68.64679 eV ==== 
     psi = 0.250*[#   4]+0.250*[#   5]+0.250*[#  14]+0.250*[#  15]
    |psi|^2 = 1.000
==== e(   8) =   -68.64637 eV ==== 
     psi = 0.250*[#   4]+0.250*[#   5]+0.250*[#  14]+0.250*[#  15]
    |psi|^2 = 1.000
==== e(   9) =    -9.11048 eV ==== 
     psi = 0.356*[#  21]+0.356*[#  25]+0.139*[#   2]+0.139*[#  12]+0.002*[#   1]
          +0.002*[#  11]+0.001*[#   6]+0.001*[#  16]
    |psi|^2 = 0.998
==== e(  10) =    -8.58903 eV ==== 
     psi = 0.429*[#  21]+0.429*[#  25]+0.057*[#   2]+0.057*[#  12]+0.011*[#   6]
          +0.011*[#  16]
    |psi|^2 = 0.997
==== e(  11) =     2.91134 eV ==== 
     psi = 0.247*[#  22]+0.247*[#  26]+0.145*[#   6]+0.145*[#  16]+0.067*[#   2]
          +0.067*[#  12]+0.007*[#   9]+0.007*[#  10]+0.007*[#  19]+0.007*[#  20]
          +0.004*[#  21]+0.004*[#  25]+0.003*[#   7]+0.003*[#   8]+0.003*[#  17]
          +0.003*[#  18]+0.004*[#  23]+0.004*[#  24]+0.004*[#  27]+0.004*[#  28]
          
    |psi|^2 = 0.985
==== e(  12) =     2.97181 eV ==== 
     psi = 0.243*[#   6]+0.243*[#  16]+0.094*[#  22]+0.094*[#  26]+0.036*[#   9]
          +0.036*[#  10]+0.036*[#  19]+0.036*[#  20]+0.019*[#  23]+0.019*[#  24]
          +0.019*[#  27]+0.019*[#  28]+0.017*[#   7]+0.017*[#   8]+0.017*[#  17]
          +0.017*[#  18]+0.015*[#   2]+0.015*[#  12]+0.002*[#  21]+0.002*[#  25]
          
    |psi|^2 = 0.998
==== e(  13) =     3.09240 eV ==== 
     psi = 0.138*[#   9]+0.138*[#  10]+0.138*[#  19]+0.138*[#  20]+0.061*[#  23]
          +0.061*[#  24]+0.061*[#  27]+0.061*[#  28]+0.050*[#   7]+0.050*[#   8]
          +0.050*[#  17]+0.050*[#  18]
    |psi|^2 = 0.999
==== e(  14) =     3.09914 eV ==== 
     psi = 0.109*[#   6]+0.109*[#  16]+0.103*[#   9]+0.103*[#  10]+0.103*[#  19]
          +0.103*[#  20]+0.043*[#  23]+0.043*[#  24]+0.043*[#  27]+0.043*[#  28]
          +0.036*[#  22]+0.036*[#  26]+0.031*[#   7]+0.031*[#   8]+0.031*[#  17]
          +0.031*[#  18]
    |psi|^2 = 0.999
==== e(  15) =     3.22309 eV ==== 
     psi = 0.165*[#   9]+0.165*[#  10]+0.165*[#  19]+0.165*[#  20]+0.058*[#  23]
          +0.058*[#  24]+0.058*[#  27]+0.058*[#  28]+0.015*[#   6]+0.015*[#  16]
          +0.014*[#   7]+0.014*[#   8]+0.014*[#  17]+0.014*[#  18]+0.010*[#  22]
          +0.010*[#  26]+0.001*[#   2]+0.001*[#  12]
    |psi|^2 = 0.998
==== e(  16) =     3.23094 eV ==== 
     psi = 0.172*[#   9]+0.172*[#  10]+0.172*[#  19]+0.172*[#  20]+0.060*[#  23]
          +0.060*[#  24]+0.060*[#  27]+0.060*[#  28]+0.017*[#   7]+0.017*[#   8]
          +0.017*[#  17]+0.017*[#  18]
    |psi|^2 = 0.998
==== e(  17) =     4.29649 eV ==== 
     psi = 0.183*[#   7]+0.183*[#   8]+0.183*[#  17]+0.183*[#  18]+0.066*[#   9]
          +0.066*[#  10]+0.066*[#  19]+0.066*[#  20]+0.002*[#   6]+0.002*[#  16]
          
    |psi|^2 = 0.999
==== e(  18) =     4.30040 eV ==== 
     psi = 0.182*[#   7]+0.182*[#   8]+0.182*[#  17]+0.182*[#  18]+0.068*[#   9]
          +0.068*[#  10]+0.068*[#  19]+0.068*[#  20]
    |psi|^2 = 0.999
==== e(  19) =     4.45524 eV ==== 
     psi = 0.227*[#   7]+0.227*[#   8]+0.227*[#  17]+0.227*[#  18]+0.023*[#   9]
          +0.023*[#  10]+0.023*[#  19]+0.023*[#  20]
    |psi|^2 = 1.000
==== e(  20) =     4.45972 eV ==== 
     psi = 0.226*[#   7]+0.226*[#   8]+0.226*[#  17]+0.226*[#  18]+0.021*[#   9]
          +0.021*[#  10]+0.021*[#  19]+0.021*[#  20]+0.004*[#   6]+0.004*[#  16]
          
    |psi|^2 = 1.000
==== e(  21) =     5.38177 eV ==== 
     psi = 0.323*[#   6]+0.323*[#  16]+0.123*[#  22]+0.123*[#  26]+0.022*[#   2]
          +0.022*[#  12]+0.019*[#  21]+0.019*[#  25]+0.001*[#   7]+0.001*[#   8]
          +0.001*[#  17]+0.001*[#  18]
    |psi|^2 = 0.981
==== e(  22) =     7.70194 eV ==== 
     psi = 0.210*[#  22]+0.210*[#  26]+0.124*[#   6]+0.124*[#  16]+0.077*[#   2]
          +0.077*[#  12]+0.045*[#  21]+0.045*[#  25]+0.011*[#  23]+0.011*[#  24]
          +0.011*[#  27]+0.011*[#  28]+0.006*[#   9]+0.006*[#  10]+0.006*[#  19]
          +0.006*[#  20]+0.003*[#   7]+0.003*[#   8]+0.003*[#  17]+0.003*[#  18]
          
    |psi|^2 = 0.989
==== e(  23) =     8.01702 eV ==== 
     psi = 0.181*[#  23]+0.181*[#  24]+0.181*[#  27]+0.181*[#  28]+0.056*[#   9]
          +0.056*[#  10]+0.056*[#  19]+0.056*[#  20]+0.006*[#   7]+0.006*[#   8]
          +0.006*[#  17]+0.006*[#  18]+0.002*[#   2]+0.002*[#  12]+0.002*[#  22]
          +0.002*[#  26]
    |psi|^2 = 0.979
==== e(  24) =     8.09350 eV ==== 
     psi = 0.184*[#  23]+0.184*[#  24]+0.184*[#  27]+0.184*[#  28]+0.054*[#   9]
          +0.054*[#  10]+0.054*[#  19]+0.054*[#  20]+0.006*[#   7]+0.006*[#   8]
          +0.006*[#  17]+0.006*[#  18]+0.002*[#  22]+0.002*[#  26]
    |psi|^2 = 0.982
==== e(  25) =     8.62728 eV ==== 
     psi = 0.164*[#  23]+0.164*[#  24]+0.164*[#  27]+0.164*[#  28]+0.042*[#  22]
          +0.042*[#  26]+0.039*[#   9]+0.039*[#  10]+0.039*[#  19]+0.039*[#  20]
          +0.016*[#   7]+0.016*[#   8]+0.016*[#  17]+0.016*[#  18]+0.013*[#   6]
          +0.013*[#  16]
    |psi|^2 = 0.988
==== e(  26) =     8.67460 eV ==== 
     psi = 0.186*[#  23]+0.186*[#  24]+0.186*[#  27]+0.186*[#  28]+0.043*[#   9]
          +0.043*[#  10]+0.043*[#  19]+0.043*[#  20]+0.018*[#   7]+0.018*[#   8]
          +0.018*[#  17]+0.018*[#  18]
    |psi|^2 = 0.989
==== e(  27) =    10.83436 eV ==== 
     psi = 0.262*[#   2]+0.262*[#  12]+0.108*[#  22]+0.108*[#  26]+0.093*[#  21]
          +0.093*[#  25]+0.011*[#  23]+0.011*[#  24]+0.011*[#  27]+0.011*[#  28]
          +0.007*[#   6]+0.007*[#  16]
    |psi|^2 = 0.986
==== e(  28) =    13.60710 eV ==== 
     psi = 0.308*[#   2]+0.308*[#  12]+0.068*[#  22]+0.068*[#  26]+0.043*[#  21]
          +0.043*[#  25]+0.003*[#  23]+0.003*[#  24]+0.003*[#  27]+0.003*[#  28]
          
    |psi|^2 = 0.851
==== e(  29) =    17.41092 eV ==== 
     psi = 0.040*[#  22]+0.040*[#  26]+0.035*[#   2]+0.035*[#  12]+0.002*[#  21]
          +0.002*[#  25]+0.001*[#   6]+0.001*[#  16]
    |psi|^2 = 0.157
==== e(  30) =    21.00296 eV ==== 
     psi = 0.003*[#  22]+0.003*[#  26]
    |psi|^2 = 0.008
==== e(  31) =    21.38123 eV ==== 
     psi = 0.001*[#  22]+0.001*[#  26]
    |psi|^2 = 0.006
==== e(  32) =    21.73960 eV ==== 

    |psi|^2 = 0.004
==== e(  33) =    22.31536 eV ==== 
     psi = 0.002*[#  23]+0.002*[#  24]+0.002*[#  27]+0.002*[#  28]+0.001*[#   2]
          +0.001*[#  12]
    |psi|^2 = 0.015
==== e(  34) =    22.59670 eV ==== 
     psi = 0.002*[#  23]+0.002*[#  24]+0.002*[#  27]+0.002*[#  28]
    |psi|^2 = 0.011
==== e(  35) =    26.04242 eV ==== 

    |psi|^2 = 0.003
==== e(  36) =    27.24885 eV ==== 

    |psi|^2 = 0.002
==== e(  37) =    27.55889 eV ==== 

    |psi|^2 = 0.002
==== e(  38) =    28.23957 eV ==== 
     psi = 0.001*[#  22]+0.001*[#  26]
    |psi|^2 = 0.006
==== e(  39) =    29.33506 eV ==== 

    |psi|^2 = 0.004
==== e(  40) =    29.51636 eV ==== 

    |psi|^2 = 0.003
==== e(  41) =    32.16566 eV ==== 

    |psi|^2 = 0.001
==== e(  42) =    32.42639 eV ==== 
     psi = 0.002*[#  22]+0.002*[#  26]+0.001*[#   2]+0.001*[#  12]
    |psi|^2 = 0.008
==== e(  43) =    32.97104 eV ==== 

    |psi|^2 = 0.003
==== e(  44) =    33.05901 eV ==== 

    |psi|^2 = 0.002
==== e(  45) =    35.62105 eV ==== 

    |psi|^2 = 0.004
==== e(  46) =    36.08164 eV ==== 

    |psi|^2 = 0.004
==== e(  47) =    36.80574 eV ==== 
     psi = 0.001*[#  22]+0.001*[#  26]
    |psi|^2 = 0.005
==== e(  48) =    37.71638 eV ==== 
     psi = 0.001*[#   2]+0.001*[#  12]
    |psi|^2 = 0.005
==== e(  49) =    40.03563 eV ==== 

    |psi|^2 = 0.003
==== e(  50) =    40.05135 eV ==== 

    |psi|^2 = 0.003

 k =   0.0333333333  0.0577350269  0.2583072432
==== e(   1) =  -114.31702 eV ==== 
     psi = 0.498*[#   1]+0.498*[#  11]+0.001*[#  22]+0.001*[#  26]
    |psi|^2 = 1.000
==== e(   2) =  -114.31701 eV ==== 
     psi = 0.497*[#   1]+0.497*[#  11]+0.001*[#   2]+0.001*[#  12]
    |psi|^2 = 1.000
==== e(   3) =   -68.65429 eV ==== 
     psi = 0.498*[#   3]+0.498*[#  13]
    |psi|^2 = 1.000
==== e(   4) =   -68.65344 eV ==== 
     psi = 0.498*[#   3]+0.498*[#  13]
    |psi|^2 = 1.000
==== e(   5) =   -68.64731 eV ==== 
     psi = 0.249*[#   4]+0.249*[#   5]+0.249*[#  14]+0.249*[#  15]+0.001*[#   3]
          +0.001*[#  13]
    |psi|^2 = 1.000
==== e(   6) =   -68.64718 eV ==== 
     psi = 0.250*[#   4]+0.250*[#   5]+0.250*[#  14]+0.250*[#  15]
    |psi|^2 = 1.000
==== e(   7) =   -68.64703 eV ==== 
     psi = 0.249*[#   4]+0.249*[#   5]+0.249*[#  14]+0.249*[#  15]+0.001*[#   3]
          +0.001*[#  13]
    |psi|^2 = 1.000
==== e(   8) =   -68.64664 eV ==== 
     psi = 0.250*[#   4]+0.250*[#   5]+0.250*[#  14]+0.250*[#  15]
    |psi|^2 = 1.000
==== e(   9) =    -8.94971 eV ==== 
     psi = 0.376*[#  21]+0.376*[#  25]+0.118*[#   2]+0.118*[#  12]+0.004*[#   6]
          +0.004*[#  16]+0.001*[#   1]+0.001*[#  11]
    |psi|^2 = 0.998
==== e(  10) =    -8.75890 eV ==== 
     psi = 0.402*[#  21]+0.402*[#  25]+0.088*[#   2]+0.088*[#  12]+0.007*[#   6]
          +0.007*[#  16]
    |psi|^2 = 0.998
==== e(  11) =     2.82050 eV ==== 
     psi = 0.220*[#   6]+0.220*[#  16]+0.186*[#  22]+0.186*[#  26]+0.053*[#   2]
          +0.053*[#  12]+0.008*[#   9]+0.008*[#  10]+0.008*[#  19]+0.008*[#  20]
          +0.005*[#  23]+0.005*[#  24]+0.005*[#  27]+0.005*[#  28]+0.004*[#   7]
          +0.004*[#   8]+0.004*[#  17]+0.004*[#  18]+0.004*[#  21]+0.004*[#  25]
          
    |psi|^2 = 0.994
==== e(  12) =     2.86206 eV ==== 
     psi = 0.266*[#   6]+0.266*[#  16]+0.141*[#  22]+0.141*[#  26]+0.033*[#   2]
          +0.033*[#  12]+0.013*[#   9]+0.013*[#  10]+0.013*[#  19]+0.013*[#  20]
          +0.007*[#  23]+0.007*[#  24]+0.007*[#  27]+0.007*[#  28]+0.007*[#   7]
          +0.007*[#   8]+0.007*[#  17]+0.007*[#  18]+0.004*[#  21]+0.004*[#  25]
          
    |psi|^2 = 0.997
==== e(  13) =     3.12380 eV ==== 
     psi = 0.135*[#   9]+0.135*[#  10]+0.135*[#  19]+0.135*[#  20]+0.054*[#  23]
          +0.054*[#  24]+0.054*[#  27]+0.054*[#  28]+0.040*[#   6]+0.040*[#  16]
          +0.033*[#   7]+0.033*[#   8]+0.033*[#  17]+0.033*[#  18]+0.014*[#  22]
          +0.014*[#  26]
    |psi|^2 = 0.999
==== e(  14) =     3.12537 eV ==== 
     psi = 0.147*[#   9]+0.147*[#  10]+0.147*[#  19]+0.147*[#  20]+0.061*[#  23]
          +0.061*[#  24]+0.061*[#  27]+0.061*[#  28]+0.042*[#   7]+0.042*[#   8]
          +0.042*[#  17]+0.042*[#  18]
    |psi|^2 = 0.999
==== e(  15) =     3.17103 eV ==== 
     psi = 0.151*[#   9]+0.151*[#  10]+0.151*[#  19]+0.151*[#  20]+0.057*[#  23]
          +0.057*[#  24]+0.057*[#  27]+0.057*[#  28]+0.025*[#   7]+0.025*[#   8]
          +0.025*[#  17]+0.025*[#  18]+0.024*[#   6]+0.024*[#  16]+0.010*[#  22]
          +0.010*[#  26]
    |psi|^2 = 0.998
==== e(  16) =     3.17586 eV ==== 
     psi = 0.159*[#   9]+0.159*[#  10]+0.159*[#  19]+0.159*[#  20]+0.060*[#  23]
          +0.060*[#  24]+0.060*[#  27]+0.060*[#  28]+0.030*[#   7]+0.030*[#   8]
          +0.030*[#  17]+0.030*[#  18]
    |psi|^2 = 0.999
==== e(  17) =     4.35760 eV ==== 
     psi = 0.194*[#   7]+0.194*[#   8]+0.194*[#  17]+0.194*[#  18]+0.054*[#   9]
          +0.054*[#  10]+0.054*[#  19]+0.054*[#  20]+0.002*[#   6]+0.002*[#  16]
          
    |psi|^2 = 1.000
==== e(  18) =     4.35843 eV ==== 
     psi = 0.193*[#   7]+0.193*[#   8]+0.193*[#  17]+0.193*[#  18]+0.057*[#   9]
          +0.057*[#  10]+0.057*[#  19]+0.057*[#  20]
    |psi|^2 = 1.000
==== e(  19) =     4.41545 eV ==== 
     psi = 0.209*[#   7]+0.209*[#   8]+0.209*[#  17]+0.209*[#  18]+0.041*[#   9]
          +0.041*[#  10]+0.041*[#  19]+0.041*[#  20]
    |psi|^2 = 1.000
==== e(  20) =     4.41736 eV ==== 
     psi = 0.210*[#   7]+0.210*[#   8]+0.210*[#  17]+0.210*[#  18]+0.039*[#   9]
          +0.039*[#  10]+0.039*[#  19]+0.039*[#  20]+0.003*[#   6]+0.003*[#  16]
          
    |psi|^2 = 1.000
==== e(  21) =     6.14506 eV ==== 
     psi = 0.243*[#   6]+0.243*[#  16]+0.171*[#  22]+0.171*[#  26]+0.040*[#   2]
          +0.040*[#  12]+0.029*[#  21]+0.029*[#  25]+0.001*[#   9]+0.001*[#  10]
          +0.001*[#  19]+0.001*[#  20]
    |psi|^2 = 0.979
==== e(  22) =     6.94140 eV ==== 
     psi = 0.199*[#  22]+0.199*[#  26]+0.180*[#   6]+0.180*[#  16]+0.061*[#   2]
          +0.061*[#  12]+0.039*[#  21]+0.039*[#  25]+0.003*[#   9]+0.003*[#  10]
          +0.003*[#  19]+0.003*[#  20]+0.002*[#  23]+0.002*[#  24]+0.002*[#  27]
          +0.002*[#  28]+0.001*[#   7]+0.001*[#   8]+0.001*[#  17]+0.001*[#  18]
          
    |psi|^2 = 0.984
==== e(  23) =     8.20965 eV ==== 
     psi = 0.180*[#  23]+0.180*[#  24]+0.180*[#  27]+0.180*[#  28]+0.050*[#   9]
          +0.050*[#  10]+0.050*[#  19]+0.050*[#  20]+0.011*[#   7]+0.011*[#   8]
          +0.011*[#  17]+0.011*[#  18]+0.005*[#  22]+0.005*[#  26]+0.002*[#   2]
          +0.002*[#  12]
    |psi|^2 = 0.981
==== e(  24) =     8.27876 eV ==== 
     psi = 0.185*[#  23]+0.185*[#  24]+0.185*[#  27]+0.185*[#  28]+0.050*[#   9]
          +0.050*[#  10]+0.050*[#  19]+0.050*[#  20]+0.011*[#   7]+0.011*[#   8]
          +0.011*[#  17]+0.011*[#  18]
    |psi|^2 = 0.984
==== e(  25) =     8.43425 eV ==== 
     psi = 0.177*[#  23]+0.177*[#  24]+0.177*[#  27]+0.177*[#  28]+0.045*[#   9]
          +0.045*[#  10]+0.045*[#  19]+0.045*[#  20]+0.015*[#   7]+0.015*[#   8]
          +0.015*[#  17]+0.015*[#  18]+0.013*[#  22]+0.013*[#  26]+0.004*[#   6]
          +0.004*[#  16]+0.001*[#   2]+0.001*[#  12]
    |psi|^2 = 0.985
==== e(  26) =     8.49219 eV ==== 
     psi = 0.185*[#  23]+0.185*[#  24]+0.185*[#  27]+0.185*[#  28]+0.046*[#   9]
          +0.046*[#  10]+0.046*[#  19]+0.046*[#  20]+0.015*[#   7]+0.015*[#   8]
          +0.015*[#  17]+0.015*[#  18]
    |psi|^2 = 0.987
==== e(  27) =    11.82987 eV ==== 
     psi = 0.279*[#   2]+0.279*[#  12]+0.117*[#  22]+0.117*[#  26]+0.077*[#  21]
          +0.077*[#  25]+0.005*[#  23]+0.005*[#  24]+0.005*[#  27]+0.005*[#  28]
          +0.003*[#   6]+0.003*[#  16]
    |psi|^2 = 0.972
==== e(  28) =    12.80207 eV ==== 
     psi = 0.301*[#   2]+0.301*[#  12]+0.099*[#  22]+0.099*[#  26]+0.060*[#  21]
          +0.060*[#  25]+0.003*[#  23]+0.003*[#  24]+0.003*[#  27]+0.003*[#  28]
          
    |psi|^2 = 0.936
==== e(  29) =    18.24029 eV ==== 
     psi = 0.021*[#  22]+0.021*[#  26]+0.010*[#   2]+0.010*[#  12]+0.001*[#   6]
          +0.001*[#  16]
    |psi|^2 = 0.068
==== e(  30) =    19.46538 eV ==== 
     psi = 0.009*[#  22]+0.009*[#  26]+0.002*[#   2]+0.002*[#  12]
    |psi|^2 = 0.026
==== e(  31) =    21.56249 eV ==== 
     psi = 0.001*[#  22]+0.001*[#  23]+0.001*[#  24]+0.001*[#  26]+0.001*[#  27]
          +0.001*[#  28]
    |psi|^2 = 0.009
==== e(  32) =    21.86306 eV ==== 
     psi = 0.001*[#  23]+0.001*[#  24]+0.001*[#  27]+0.001*[#  28]
    |psi|^2 = 0.008
==== e(  33) =    21.90605 eV ==== 
     psi = 0.002*[#  23]+0.002*[#  24]+0.002*[#  27]+0.002*[#  28]
    |psi|^2 = 0.010
==== e(  34) =    22.17196 eV ==== 
     psi = 0.002*[#  23]+0.002*[#  24]+0.002*[#  27]+0.002*[#  28]
    |psi|^2 = 0.008
==== e(  35) =    26.69930 eV ==== 
     psi = 0.001*[#  22]+0.001*[#  26]
    |psi|^2 = 0.005
==== e(  36) =    27.43290 eV ==== 
     psi = 0.002*[#  22]+0.002*[#  26]
    |psi|^2 = 0.007
==== e(  37) =    28.38343 eV ==== 

    |psi|^2 = 0.003
==== e(  38) =    28.52200 eV ==== 

    |psi|^2 = 0.003
==== e(  39) =    29.33797 eV ==== 

    |psi|^2 = 0.004
==== e(  40) =    29.35706 eV ==== 

    |psi|^2 = 0.004
==== e(  41) =    32.41865 eV ==== 

    |psi|^2 = 0.004
==== e(  42) =    33.08229 eV ==== 

    |psi|^2 = 0.002
==== e(  43) =    33.27623 eV ==== 

    |psi|^2 = 0.001
==== e(  44) =    33.77042 eV ==== 

    |psi|^2 = 0.002
==== e(  45) =    34.55899 eV ==== 

    |psi|^2 = 0.002
==== e(  46) =    34.99064 eV ==== 

    |psi|^2 = 0.003
==== e(  47) =    36.45801 eV ==== 

    |psi|^2 = 0.002
==== e(  48) =    38.26427 eV ==== 

    |psi|^2 = 0.003
==== e(  49) =    40.29428 eV ==== 

    |psi|^2 = 0.004
==== e(  50) =    40.43192 eV ==== 

    |psi|^2 = 0.004

 k =   0.0333333333  0.1347150628  0.0516614486
==== e(   1) =  -114.31738 eV ==== 
     psi = 0.496*[#   1]+0.496*[#  11]+0.003*[#   2]+0.003*[#  12]
    |psi|^2 = 1.000
==== e(   2) =  -114.31671 eV ==== 
     psi = 0.497*[#   1]+0.497*[#  11]+0.002*[#  22]+0.002*[#  26]
    |psi|^2 = 1.000
==== e(   3) =   -68.65436 eV ==== 
     psi = 0.497*[#   3]+0.497*[#  13]
    |psi|^2 = 1.000
==== e(   4) =   -68.65221 eV ==== 
     psi = 0.500*[#   3]+0.500*[#  13]
    |psi|^2 = 1.000
==== e(   5) =   -68.64787 eV ==== 
     psi = 0.250*[#   4]+0.250*[#   5]+0.250*[#  14]+0.250*[#  15]
    |psi|^2 = 1.000
==== e(   6) =   -68.64753 eV ==== 
     psi = 0.249*[#   4]+0.249*[#   5]+0.249*[#  14]+0.249*[#  15]
    |psi|^2 = 1.000
==== e(   7) =   -68.64718 eV ==== 
     psi = 0.249*[#   4]+0.249*[#   5]+0.249*[#  14]+0.249*[#  15]
    |psi|^2 = 1.000
==== e(   8) =   -68.64673 eV ==== 
     psi = 0.250*[#   4]+0.250*[#   5]+0.250*[#  14]+0.250*[#  15]
    |psi|^2 = 1.000
==== e(   9) =    -9.13994 eV ==== 
     psi = 0.353*[#  21]+0.353*[#  25]+0.143*[#   2]+0.143*[#  12]+0.002*[#   1]
          +0.002*[#  11]
    |psi|^2 = 0.998
==== e(  10) =    -8.46090 eV ==== 
     psi = 0.451*[#  21]+0.451*[#  25]+0.031*[#   2]+0.031*[#  12]+0.013*[#   6]
          +0.013*[#  16]
    |psi|^2 = 0.996
==== e(  11) =     2.96740 eV ==== 
     psi = 0.105*[#   9]+0.105*[#  10]+0.105*[#  19]+0.105*[#  20]+0.059*[#  23]
          +0.059*[#  24]+0.059*[#  27]+0.059*[#  28]+0.048*[#   7]+0.048*[#   8]
          +0.048*[#  17]+0.048*[#  18]+0.040*[#   6]+0.040*[#  16]+0.020*[#  22]
          +0.020*[#  26]+0.013*[#   2]+0.013*[#  12]+0.002*[#  21]+0.002*[#  25]
          
    |psi|^2 = 0.998
==== e(  12) =     3.09338 eV ==== 
     psi = 0.099*[#   9]+0.099*[#  10]+0.099*[#  19]+0.099*[#  20]+0.075*[#  22]
          +0.075*[#  26]+0.048*[#   7]+0.048*[#   8]+0.048*[#  17]+0.048*[#  18]
          +0.047*[#  23]+0.047*[#  24]+0.047*[#  27]+0.047*[#  28]+0.017*[#   6]
          +0.017*[#  16]+0.015*[#   2]+0.015*[#  12]
    |psi|^2 = 0.993
==== e(  13) =     3.14242 eV ==== 
     psi = 0.200*[#   6]+0.200*[#  16]+0.115*[#  22]+0.115*[#  26]+0.052*[#   9]
          +0.052*[#  10]+0.052*[#  19]+0.052*[#  20]+0.020*[#  23]+0.020*[#  24]
          +0.020*[#  27]+0.020*[#  28]+0.013*[#   7]+0.013*[#   8]+0.013*[#  17]
          +0.013*[#  18]+0.012*[#   2]+0.012*[#  12]
    |psi|^2 = 0.994
==== e(  14) =     3.16792 eV ==== 
     psi = 0.157*[#  22]+0.157*[#  26]+0.140*[#   6]+0.140*[#  16]+0.054*[#   9]
          +0.054*[#  10]+0.054*[#  19]+0.054*[#  20]+0.022*[#   2]+0.022*[#  12]
          +0.020*[#  23]+0.020*[#  24]+0.020*[#  27]+0.020*[#  28]+0.012*[#   7]
          +0.012*[#   8]+0.012*[#  17]+0.012*[#  18]+0.001*[#  21]+0.001*[#  25]
          
    |psi|^2 = 0.988
==== e(  15) =     3.27616 eV ==== 
     psi = 0.121*[#   9]+0.121*[#  10]+0.121*[#  19]+0.121*[#  20]+0.076*[#  22]
          +0.076*[#  26]+0.046*[#  23]+0.046*[#  24]+0.046*[#  27]+0.046*[#  28]
          +0.042*[#   6]+0.042*[#  16]+0.023*[#   2]+0.023*[#  12]+0.009*[#   7]
          +0.009*[#   8]+0.009*[#  17]+0.009*[#  18]+0.001*[#  21]+0.001*[#  25]
          
    |psi|^2 = 0.992
==== e(  16) =     3.31857 eV ==== 
     psi = 0.177*[#   9]+0.177*[#  10]+0.177*[#  19]+0.177*[#  20]+0.060*[#  23]
          +0.060*[#  24]+0.060*[#  27]+0.060*[#  28]+0.010*[#   7]+0.010*[#   8]
          +0.010*[#  17]+0.010*[#  18]+0.003*[#   6]+0.003*[#  16]
    |psi|^2 = 0.998
==== e(  17) =     4.23316 eV ==== 
     psi = 0.173*[#   7]+0.173*[#   8]+0.173*[#  17]+0.173*[#  18]+0.073*[#   9]
          +0.073*[#  10]+0.073*[#  19]+0.073*[#  20]+0.007*[#   6]+0.007*[#  16]
          
    |psi|^2 = 0.999
==== e(  18) =     4.26054 eV ==== 
     psi = 0.166*[#   7]+0.166*[#   8]+0.166*[#  17]+0.166*[#  18]+0.084*[#   9]
          +0.084*[#  10]+0.084*[#  19]+0.084*[#  20]
    |psi|^2 = 0.999
==== e(  19) =     4.47821 eV ==== 
     psi = 0.237*[#   7]+0.237*[#   8]+0.237*[#  17]+0.237*[#  18]+0.013*[#   9]
          +0.013*[#  10]+0.013*[#  19]+0.013*[#  20]
    |psi|^2 = 1.000
==== e(  20) =     4.51855 eV ==== 
     psi = 0.223*[#   7]+0.223*[#   8]+0.223*[#  17]+0.223*[#  18]+0.020*[#   6]
          +0.020*[#  16]+0.014*[#  22]+0.014*[#  26]+0.008*[#   9]+0.008*[#  10]
          +0.008*[#  19]+0.008*[#  20]+0.004*[#   2]+0.004*[#  12]
    |psi|^2 = 0.999
==== e(  21) =     4.83632 eV ==== 
     psi = 0.399*[#   6]+0.399*[#  16]+0.053*[#  22]+0.053*[#  26]+0.015*[#   2]
          +0.015*[#  12]+0.010*[#  21]+0.010*[#  25]+0.008*[#   7]+0.008*[#   8]
          +0.008*[#  17]+0.008*[#  18]+0.002*[#   9]+0.002*[#  10]+0.002*[#  19]
          +0.002*[#  20]
    |psi|^2 = 0.994
==== e(  22) =     7.52332 eV ==== 
     psi = 0.165*[#  23]+0.165*[#  24]+0.165*[#  27]+0.165*[#  28]+0.064*[#   9]
          +0.064*[#  10]+0.064*[#  19]+0.064*[#  20]+0.012*[#   2]+0.012*[#  12]
          +0.005*[#  21]+0.005*[#  25]+0.004*[#  22]+0.004*[#  26]+0.003*[#   7]
          +0.003*[#   8]+0.003*[#  17]+0.003*[#  18]
    |psi|^2 = 0.971
==== e(  23) =     7.79698 eV ==== 
     psi = 0.167*[#  23]+0.167*[#  24]+0.167*[#  27]+0.167*[#  28]+0.055*[#   9]
          +0.055*[#  10]+0.055*[#  19]+0.055*[#  20]+0.016*[#   2]+0.016*[#  12]
          +0.009*[#  21]+0.009*[#  25]+0.006*[#   7]+0.006*[#   8]+0.006*[#  17]
          +0.006*[#  18]+0.005*[#  22]+0.005*[#  26]+0.003*[#   6]+0.003*[#  16]
          
    |psi|^2 = 0.980
==== e(  24) =     7.99883 eV ==== 
     psi = 0.121*[#  23]+0.121*[#  24]+0.121*[#  27]+0.121*[#  28]+0.057*[#   2]
          +0.057*[#  12]+0.041*[#   9]+0.041*[#  10]+0.041*[#  19]+0.041*[#  20]
          +0.033*[#  21]+0.033*[#  25]+0.031*[#  22]+0.031*[#  26]+0.017*[#   7]
          +0.017*[#   8]+0.017*[#  17]+0.017*[#  18]+0.014*[#   6]+0.014*[#  16]
          
    |psi|^2 = 0.988
==== e(  25) =     8.61294 eV ==== 
     psi = 0.324*[#  22]+0.324*[#  26]+0.097*[#   6]+0.097*[#  16]+0.027*[#  23]
          +0.027*[#  24]+0.027*[#  27]+0.027*[#  28]+0.007*[#   9]+0.007*[#  10]
          +0.007*[#  19]+0.007*[#  20]+0.003*[#   7]+0.003*[#   8]+0.003*[#  17]
          +0.003*[#  18]
    |psi|^2 = 0.989
==== e(  26) =     8.69509 eV ==== 
     psi = 0.186*[#  23]+0.186*[#  24]+0.186*[#  27]+0.186*[#  28]+0.040*[#   9]
          +0.040*[#  10]+0.040*[#  19]+0.040*[#  20]+0.022*[#   7]+0.022*[#   8]
          +0.022*[#  17]+0.022*[#  18]
    |psi|^2 = 0.990
==== e(  27) =    10.60516 eV ==== 
     psi = 0.261*[#   2]+0.261*[#  12]+0.097*[#  21]+0.097*[#  25]+0.054*[#  23]
          +0.054*[#  24]+0.054*[#  27]+0.054*[#  28]+0.017*[#  22]+0.017*[#  26]
          +0.003*[#   9]+0.003*[#  10]+0.003*[#  19]+0.003*[#  20]+0.001*[#   6]
          +0.001*[#   7]+0.001*[#   8]+0.001*[#  16]+0.001*[#  17]+0.001*[#  18]
          
    |psi|^2 = 0.986
==== e(  28) =    14.51743 eV ==== 
     psi = 0.289*[#   2]+0.289*[#  12]+0.041*[#  22]+0.041*[#  26]+0.026*[#  21]
          +0.026*[#  25]+0.010*[#  23]+0.010*[#  24]+0.010*[#  27]+0.010*[#  28]
          +0.001*[#   1]+0.001*[#  11]
    |psi|^2 = 0.756
==== e(  29) =    16.97323 eV ==== 
     psi = 0.066*[#   2]+0.066*[#  12]+0.053*[#  22]+0.053*[#  26]+0.001*[#  21]
          +0.001*[#  25]+0.001*[#   6]+0.001*[#  16]
    |psi|^2 = 0.247
==== e(  30) =    20.34976 eV ==== 
     psi = 0.002*[#  23]+0.002*[#  24]+0.002*[#  27]+0.002*[#  28]
    |psi|^2 = 0.011
==== e(  31) =    21.70241 eV ==== 
     psi = 0.003*[#  23]+0.003*[#  24]+0.003*[#  27]+0.003*[#  28]+0.002*[#   2]
          +0.002*[#  12]
    |psi|^2 = 0.017
==== e(  32) =    22.03003 eV ==== 
     psi = 0.003*[#   2]+0.003*[#  12]+0.002*[#  23]+0.002*[#  24]+0.002*[#  27]
          +0.002*[#  28]+0.001*[#  22]+0.001*[#  26]
    |psi|^2 = 0.016
==== e(  33) =    22.56614 eV ==== 

    |psi|^2 = 0.005
==== e(  34) =    23.09875 eV ==== 
     psi = 0.003*[#  23]+0.003*[#  24]+0.003*[#  27]+0.003*[#  28]
    |psi|^2 = 0.012
==== e(  35) =    24.80703 eV ==== 

    |psi|^2 = 0.003
==== e(  36) =    25.96995 eV ==== 

    |psi|^2 = 0.003
==== e(  37) =    27.51972 eV ==== 

    |psi|^2 = 0.003
==== e(  38) =    28.89531 eV ==== 
     psi = 0.001*[#   2]+0.001*[#  12]
    |psi|^2 = 0.005
==== e(  39) =    29.99754 eV ==== 

    |psi|^2 = 0.002
==== e(  40) =    30.25871 eV ==== 

    |psi|^2 = 0.004
==== e(  41) =    31.20904 eV ==== 

    |psi|^2 = 0.002
==== e(  42) =    32.43541 eV ==== 

    |psi|^2 = 0.004
==== e(  43) =    33.65838 eV ==== 

    |psi|^2 = 0.004
==== e(  44) =    33.81119 eV ==== 
     psi = 0.002*[#  22]+0.002*[#  26]+0.001*[#   2]+0.001*[#  12]
    |psi|^2 = 0.006
==== e(  45) =    36.16970 eV ==== 

    |psi|^2 = 0.005
==== e(  46) =    37.08223 eV ==== 
     psi = 0.001*[#  23]+0.001*[#  24]+0.001*[#  27]+0.001*[#  28]
    |psi|^2 = 0.006
==== e(  47) =    37.39870 eV ==== 

    |psi|^2 = 0.005
==== e(  48) =    37.63257 eV ==== 
     psi = 0.002*[#   2]+0.002*[#  12]
    |psi|^2 = 0.007
==== e(  49) =    39.13761 eV ==== 

    |psi|^2 = 0.001
==== e(  50) =    39.40150 eV ==== 

    |psi|^2 = 0.002

 k =   0.0333333333  0.1347150628  0.1549843459
==== e(   1) =  -114.31721 eV ==== 
     psi = 0.497*[#   1]+0.497*[#  11]+0.002*[#   2]+0.002*[#  12]
    |psi|^2 = 1.000
==== e(   2) =  -114.31684 eV ==== 
     psi = 0.498*[#   1]+0.498*[#  11]+0.002*[#  22]+0.002*[#  26]
    |psi|^2 = 1.000
==== e(   3) =   -68.65446 eV ==== 
     psi = 0.498*[#   3]+0.498*[#  13]
    |psi|^2 = 1.000
==== e(   4) =   -68.65220 eV ==== 
     psi = 0.498*[#   3]+0.498*[#  13]
    |psi|^2 = 1.000
==== e(   5) =   -68.64785 eV ==== 
     psi = 0.249*[#   4]+0.249*[#   5]+0.249*[#  14]+0.249*[#  15]+0.001*[#   3]
          +0.001*[#  13]
    |psi|^2 = 1.000
==== e(   6) =   -68.64776 eV ==== 
     psi = 0.249*[#   4]+0.249*[#   5]+0.249*[#  14]+0.249*[#  15]
    |psi|^2 = 1.000
==== e(   7) =   -68.64735 eV ==== 
     psi = 0.250*[#   4]+0.250*[#   5]+0.250*[#  14]+0.250*[#  15]
    |psi|^2 = 1.000
==== e(   8) =   -68.64668 eV ==== 
     psi = 0.250*[#   4]+0.250*[#   5]+0.250*[#  14]+0.250*[#  15]
    |psi|^2 = 1.000
==== e(   9) =    -9.05248 eV ==== 
     psi = 0.363*[#  21]+0.363*[#  25]+0.132*[#   2]+0.132*[#  12]+0.002*[#   1]
          +0.002*[#  11]+0.001*[#   6]+0.001*[#  16]
    |psi|^2 = 0.998
==== e(  10) =    -8.55545 eV ==== 
     psi = 0.434*[#  21]+0.434*[#  25]+0.051*[#   2]+0.051*[#  12]+0.011*[#   6]
          +0.011*[#  16]
    |psi|^2 = 0.997
==== e(  11) =     2.89733 eV ==== 
     psi = 0.115*[#   6]+0.115*[#  16]+0.105*[#  22]+0.105*[#  26]+0.058*[#   9]
          +0.058*[#  10]+0.058*[#  19]+0.058*[#  20]+0.035*[#   2]+0.035*[#  12]
          +0.033*[#  23]+0.033*[#  24]+0.033*[#  27]+0.033*[#  28]+0.029*[#   7]
          +0.029*[#   8]+0.029*[#  17]+0.029*[#  18]+0.003*[#  21]+0.003*[#  25]
          
    |psi|^2 = 0.995
==== e(  12) =     2.93080 eV ==== 
     psi = 0.160*[#  22]+0.160*[#  26]+0.128*[#   6]+0.128*[#  16]+0.049*[#   2]
          +0.049*[#  12]+0.039*[#   9]+0.039*[#  10]+0.039*[#  19]+0.039*[#  20]
          +0.022*[#  23]+0.022*[#  24]+0.022*[#  27]+0.022*[#  28]+0.017*[#   7]
          +0.017*[#   8]+0.017*[#  17]+0.017*[#  18]+0.003*[#  21]+0.003*[#  25]
          
    |psi|^2 = 0.992
==== e(  13) =     3.13007 eV ==== 
     psi = 0.128*[#   9]+0.128*[#  10]+0.128*[#  19]+0.128*[#  20]+0.060*[#  23]
          +0.060*[#  24]+0.060*[#  27]+0.060*[#  28]+0.054*[#   7]+0.054*[#   8]
          +0.054*[#  17]+0.054*[#  18]+0.011*[#   6]+0.011*[#  16]+0.004*[#  22]
          +0.004*[#  26]
    |psi|^2 = 0.999
==== e(  14) =     3.14373 eV ==== 
     psi = 0.197*[#   6]+0.197*[#  16]+0.072*[#   9]+0.072*[#  10]+0.072*[#  19]
          +0.072*[#  20]+0.067*[#  22]+0.067*[#  26]+0.028*[#  23]+0.028*[#  24]
          +0.028*[#  27]+0.028*[#  28]+0.017*[#   7]+0.017*[#   8]+0.017*[#  17]
          +0.017*[#  18]+0.001*[#   2]+0.001*[#  12]
    |psi|^2 = 0.998
==== e(  15) =     3.25295 eV ==== 
     psi = 0.135*[#   9]+0.135*[#  10]+0.135*[#  19]+0.135*[#  20]+0.065*[#   6]
          +0.065*[#  16]+0.049*[#  23]+0.049*[#  24]+0.049*[#  27]+0.049*[#  28]
          +0.041*[#  22]+0.041*[#  26]+0.009*[#   7]+0.009*[#   8]+0.009*[#  17]
          +0.009*[#  18]+0.006*[#   2]+0.006*[#  12]
    |psi|^2 = 0.995
==== e(  16) =     3.27938 eV ==== 
     psi = 0.167*[#   9]+0.167*[#  10]+0.167*[#  19]+0.167*[#  20]+0.060*[#  23]
          +0.060*[#  24]+0.060*[#  27]+0.060*[#  28]+0.020*[#   7]+0.020*[#   8]
          +0.020*[#  17]+0.020*[#  18]+0.003*[#   6]+0.003*[#  16]
    |psi|^2 = 0.998
==== e(  17) =     4.28043 eV ==== 
     psi = 0.179*[#   7]+0.179*[#   8]+0.179*[#  17]+0.179*[#  18]+0.066*[#   9]
          +0.066*[#  10]+0.066*[#  19]+0.066*[#  20]+0.008*[#   6]+0.008*[#  16]
          
    |psi|^2 = 0.999
==== e(  18) =     4.29754 eV ==== 
     psi = 0.172*[#   7]+0.172*[#   8]+0.172*[#  17]+0.172*[#  18]+0.077*[#   9]
          +0.077*[#  10]+0.077*[#  19]+0.077*[#  20]
    |psi|^2 = 0.999
==== e(  19) =     4.45747 eV ==== 
     psi = 0.223*[#   7]+0.223*[#   8]+0.223*[#  17]+0.223*[#  18]+0.027*[#   9]
          +0.027*[#  10]+0.027*[#  19]+0.027*[#  20]
    |psi|^2 = 1.000
==== e(  20) =     4.47644 eV ==== 
     psi = 0.219*[#   7]+0.219*[#   8]+0.219*[#  17]+0.219*[#  18]+0.021*[#   9]
          +0.021*[#  10]+0.021*[#  19]+0.021*[#  20]+0.016*[#   6]+0.016*[#  16]
          +0.003*[#  22]+0.003*[#  26]+0.001*[#   2]+0.001*[#  12]
    |psi|^2 = 1.000
==== e(  21) =     5.41011 eV ==== 
     psi = 0.302*[#   6]+0.302*[#  16]+0.129*[#  22]+0.129*[#  26]+0.024*[#   2]
          +0.024*[#  12]+0.019*[#  21]+0.019*[#  25]+0.005*[#   7]+0.005*[#   8]
          +0.005*[#  17]+0.005*[#  18]+0.003*[#   9]+0.003*[#  10]+0.003*[#  19]
          +0.003*[#  20]
    |psi|^2 = 0.981
==== e(  22) =     7.48245 eV ==== 
     psi = 0.118*[#  22]+0.118*[#  26]+0.079*[#   6]+0.079*[#  16]+0.069*[#   2]
          +0.069*[#  12]+0.055*[#  23]+0.055*[#  24]+0.055*[#  27]+0.055*[#  28]
          +0.041*[#  21]+0.041*[#  25]+0.028*[#   9]+0.028*[#  10]+0.028*[#  19]
          +0.028*[#  20]+0.010*[#   7]+0.010*[#   8]+0.010*[#  17]+0.010*[#  18]
          
    |psi|^2 = 0.987
==== e(  23) =     7.68859 eV ==== 
     psi = 0.156*[#  23]+0.156*[#  24]+0.156*[#  27]+0.156*[#  28]+0.055*[#   9]
          +0.055*[#  10]+0.055*[#  19]+0.055*[#  20]+0.024*[#  22]+0.024*[#  26]
          +0.012*[#   2]+0.012*[#  12]+0.010*[#   6]+0.010*[#  16]+0.007*[#   7]
          +0.007*[#   8]+0.007*[#  17]+0.007*[#  18]+0.006*[#  21]+0.006*[#  25]
          
    |psi|^2 = 0.972
==== e(  24) =     7.95932 eV ==== 
     psi = 0.180*[#  23]+0.180*[#  24]+0.180*[#  27]+0.180*[#  28]+0.053*[#   9]
          +0.053*[#  10]+0.053*[#  19]+0.053*[#  20]+0.007*[#   7]+0.007*[#   8]
          +0.007*[#  17]+0.007*[#  18]+0.006*[#  22]+0.006*[#  26]+0.003*[#   6]
          +0.003*[#  16]
    |psi|^2 = 0.979
==== e(  25) =     8.46310 eV ==== 
     psi = 0.143*[#  22]+0.143*[#  26]+0.114*[#  23]+0.114*[#  24]+0.114*[#  27]
          +0.114*[#  28]+0.046*[#   6]+0.046*[#  16]+0.026*[#   9]+0.026*[#  10]
          +0.026*[#  19]+0.026*[#  20]+0.011*[#   7]+0.011*[#   8]+0.011*[#  17]
          +0.011*[#  18]
    |psi|^2 = 0.985
==== e(  26) =     8.58245 eV ==== 
     psi = 0.185*[#  23]+0.185*[#  24]+0.185*[#  27]+0.185*[#  28]+0.041*[#   9]
          +0.041*[#  10]+0.041*[#  19]+0.041*[#  20]+0.020*[#   7]+0.020*[#   8]
          +0.020*[#  17]+0.020*[#  18]
    |psi|^2 = 0.988
==== e(  27) =    11.23511 eV ==== 
     psi = 0.264*[#   2]+0.264*[#  12]+0.085*[#  21]+0.085*[#  25]+0.076*[#  22]
          +0.076*[#  26]+0.029*[#  23]+0.029*[#  24]+0.029*[#  27]+0.029*[#  28]
          +0.003*[#   6]+0.003*[#  16]+0.001*[#   9]+0.001*[#  10]+0.001*[#  19]
          +0.001*[#  20]
    |psi|^2 = 0.979
==== e(  28) =    13.97749 eV ==== 
     psi = 0.306*[#   2]+0.306*[#  12]+0.067*[#  22]+0.067*[#  26]+0.037*[#  21]
          +0.037*[#  25]+0.010*[#  23]+0.010*[#  24]+0.010*[#  27]+0.010*[#  28]
          
    |psi|^2 = 0.862
==== e(  29) =    17.41821 eV ==== 
     psi = 0.033*[#  22]+0.033*[#  26]+0.030*[#   2]+0.030*[#  12]+0.001*[#   6]
          +0.001*[#  16]+0.001*[#  21]+0.001*[#  23]+0.001*[#  24]+0.001*[#  25]
          +0.001*[#  27]+0.001*[#  28]
    |psi|^2 = 0.139
==== e(  30) =    20.38302 eV ==== 
     psi = 0.002*[#  23]+0.002*[#  24]+0.002*[#  27]+0.002*[#  28]+0.002*[#   2]
          +0.002*[#  12]
    |psi|^2 = 0.014
==== e(  31) =    21.12732 eV ==== 
     psi = 0.004*[#  22]+0.004*[#  26]
    |psi|^2 = 0.013
==== e(  32) =    21.66127 eV ==== 
     psi = 0.004*[#   2]+0.004*[#  12]+0.003*[#  23]+0.003*[#  24]+0.003*[#  27]
          +0.003*[#  28]+0.003*[#  22]+0.003*[#  26]
    |psi|^2 = 0.026
==== e(  33) =    21.88742 eV ==== 
     psi = 0.001*[#  23]+0.001*[#  24]+0.001*[#  27]+0.001*[#  28]
    |psi|^2 = 0.009
==== e(  34) =    22.68693 eV ==== 
     psi = 0.003*[#  23]+0.003*[#  24]+0.003*[#  27]+0.003*[#  28]
    |psi|^2 = 0.012
==== e(  35) =    25.74705 eV ==== 

    |psi|^2 = 0.004
==== e(  36) =    26.74276 eV ==== 

    |psi|^2 = 0.003
==== e(  37) =    27.87864 eV ==== 

    |psi|^2 = 0.004
==== e(  38) =    28.70926 eV ==== 

    |psi|^2 = 0.004
==== e(  39) =    30.11531 eV ==== 

    |psi|^2 = 0.003
==== e(  40) =    30.30743 eV ==== 

    |psi|^2 = 0.003
==== e(  41) =    32.04280 eV ==== 

    |psi|^2 = 0.002
==== e(  42) =    32.52413 eV ==== 
     psi = 0.001*[#  22]+0.001*[#  26]
    |psi|^2 = 0.004
==== e(  43) =    33.28862 eV ==== 

    |psi|^2 = 0.002
==== e(  44) =    34.01190 eV ==== 

    |psi|^2 = 0.005
==== e(  45) =    35.42531 eV ==== 

    |psi|^2 = 0.003
==== e(  46) =    36.13679 eV ==== 

    |psi|^2 = 0.004
==== e(  47) =    37.25487 eV ==== 
     psi = 0.001*[#  22]+0.001*[#  26]
    |psi|^2 = 0.005
==== e(  48) =    38.20589 eV ==== 

    |psi|^2 = 0.004
==== e(  49) =    39.71659 eV ==== 

    |psi|^2 = 0.003
==== e(  50) =    39.79882 eV ==== 

    |psi|^2 = 0.003

 k =   0.0333333333  0.1347150628  0.2583072432
==== e(   1) =  -114.31719 eV ==== 
     psi = 0.497*[#   1]+0.497*[#  11]+0.001*[#   2]+0.001*[#  12]
    |psi|^2 = 1.000
==== e(   2) =  -114.31700 eV ==== 
     psi = 0.498*[#   1]+0.498*[#  11]+0.001*[#  22]+0.001*[#  26]
    |psi|^2 = 1.000
==== e(   3) =   -68.65413 eV ==== 
     psi = 0.499*[#   3]+0.499*[#  13]
    |psi|^2 = 1.000
==== e(   4) =   -68.65364 eV ==== 
     psi = 0.495*[#   3]+0.495*[#  13]+0.002*[#   4]+0.002*[#   5]+0.002*[#  14]
          +0.002*[#  15]
    |psi|^2 = 1.000
==== e(   5) =   -68.64789 eV ==== 
     psi = 0.248*[#   4]+0.248*[#   5]+0.248*[#  14]+0.248*[#  15]+0.004*[#   3]
          +0.004*[#  13]
    |psi|^2 = 1.000
==== e(   6) =   -68.64780 eV ==== 
     psi = 0.249*[#   4]+0.249*[#   5]+0.249*[#  14]+0.249*[#  15]
    |psi|^2 = 1.000
==== e(   7) =   -68.64730 eV ==== 
     psi = 0.249*[#   4]+0.249*[#   5]+0.249*[#  14]+0.249*[#  15]
    |psi|^2 = 1.000
==== e(   8) =   -68.64691 eV ==== 
     psi = 0.250*[#   4]+0.250*[#   5]+0.250*[#  14]+0.250*[#  15]
    |psi|^2 = 1.000
==== e(   9) =    -8.89857 eV ==== 
     psi = 0.382*[#  21]+0.382*[#  25]+0.110*[#   2]+0.110*[#  12]+0.004*[#   6]
          +0.004*[#  16]+0.001*[#   1]+0.001*[#  11]
    |psi|^2 = 0.998
==== e(  10) =    -8.71660 eV ==== 
     psi = 0.408*[#  21]+0.408*[#  25]+0.081*[#   2]+0.081*[#  12]+0.007*[#   6]
          +0.007*[#  16]
    |psi|^2 = 0.998
==== e(  11) =     2.79845 eV ==== 
     psi = 0.162*[#   6]+0.162*[#  16]+0.154*[#  22]+0.154*[#  26]+0.054*[#   2]
          +0.054*[#  12]+0.029*[#   9]+0.029*[#  10]+0.029*[#  19]+0.029*[#  20]
          +0.018*[#  23]+0.018*[#  24]+0.018*[#  27]+0.018*[#  28]+0.015*[#   7]
          +0.015*[#   8]+0.015*[#  17]+0.015*[#  18]+0.004*[#  21]+0.004*[#  25]
          
    |psi|^2 = 0.995
==== e(  12) =     2.81790 eV ==== 
     psi = 0.183*[#   6]+0.183*[#  16]+0.114*[#  22]+0.114*[#  26]+0.039*[#   2]
          +0.039*[#  12]+0.036*[#   9]+0.036*[#  10]+0.036*[#  19]+0.036*[#  20]
          +0.023*[#  23]+0.023*[#  24]+0.023*[#  27]+0.023*[#  28]+0.019*[#   7]
          +0.019*[#   8]+0.019*[#  17]+0.019*[#  18]+0.004*[#  21]+0.004*[#  25]
          
    |psi|^2 = 0.997
==== e(  13) =     3.15806 eV ==== 
     psi = 0.114*[#   6]+0.114*[#  16]+0.108*[#   9]+0.108*[#  10]+0.108*[#  19]
          +0.108*[#  20]+0.043*[#  23]+0.043*[#  24]+0.043*[#  27]+0.043*[#  28]
          +0.038*[#  22]+0.038*[#  26]+0.022*[#   7]+0.022*[#   8]+0.022*[#  17]
          +0.022*[#  18]
    |psi|^2 = 0.998
==== e(  14) =     3.16498 eV ==== 
     psi = 0.139*[#   9]+0.139*[#  10]+0.139*[#  19]+0.139*[#  20]+0.060*[#  23]
          +0.060*[#  24]+0.060*[#  27]+0.060*[#  28]+0.046*[#   7]+0.046*[#   8]
          +0.046*[#  17]+0.046*[#  18]+0.007*[#   6]+0.007*[#  16]+0.002*[#  22]
          +0.002*[#  26]
    |psi|^2 = 0.999
==== e(  15) =     3.20425 eV ==== 
     psi = 0.126*[#   9]+0.126*[#  10]+0.126*[#  19]+0.126*[#  20]+0.084*[#   6]
          +0.084*[#  16]+0.047*[#  23]+0.047*[#  24]+0.047*[#  27]+0.047*[#  28]
          +0.034*[#  22]+0.034*[#  26]+0.017*[#   7]+0.017*[#   8]+0.017*[#  17]
          +0.017*[#  18]+0.002*[#   2]+0.002*[#  12]
    |psi|^2 = 0.997
==== e(  16) =     3.22161 eV ==== 
     psi = 0.152*[#   9]+0.152*[#  10]+0.152*[#  19]+0.152*[#  20]+0.060*[#  23]
          +0.060*[#  24]+0.060*[#  27]+0.060*[#  28]+0.034*[#   7]+0.034*[#   8]
          +0.034*[#  17]+0.034*[#  18]+0.005*[#   6]+0.005*[#  16]+0.002*[#  22]
          +0.002*[#  26]
    |psi|^2 = 0.998
==== e(  17) =     4.35230 eV ==== 
     psi = 0.190*[#   7]+0.190*[#   8]+0.190*[#  17]+0.190*[#  18]+0.055*[#   9]
          +0.055*[#  10]+0.055*[#  19]+0.055*[#  20]+0.008*[#   6]+0.008*[#  16]
          
    |psi|^2 = 0.999
==== e(  18) =     4.35591 eV ==== 
     psi = 0.185*[#   7]+0.185*[#   8]+0.185*[#  17]+0.185*[#  18]+0.065*[#   9]
          +0.065*[#  10]+0.065*[#  19]+0.065*[#  20]
    |psi|^2 = 1.000
==== e(  19) =     4.41468 eV ==== 
     psi = 0.203*[#   7]+0.203*[#   8]+0.203*[#  17]+0.203*[#  18]+0.047*[#   9]
          +0.047*[#  10]+0.047*[#  19]+0.047*[#  20]
    |psi|^2 = 1.000
==== e(  20) =     4.42299 eV ==== 
     psi = 0.205*[#   7]+0.205*[#   8]+0.205*[#  17]+0.205*[#  18]+0.038*[#   9]
          +0.038*[#  10]+0.038*[#  19]+0.038*[#  20]+0.011*[#   6]+0.011*[#  16]
          
    |psi|^2 = 1.000
==== e(  21) =     6.16095 eV ==== 
     psi = 0.227*[#   6]+0.227*[#  16]+0.170*[#  22]+0.170*[#  26]+0.041*[#   2]
          +0.041*[#  12]+0.029*[#  21]+0.029*[#  25]+0.007*[#   9]+0.007*[#  10]
          +0.007*[#  19]+0.007*[#  20]+0.004*[#   7]+0.004*[#   8]+0.004*[#  17]
          +0.004*[#  18]+0.002*[#  23]+0.002*[#  24]+0.002*[#  27]+0.002*[#  28]
          
    |psi|^2 = 0.981
==== e(  22) =     6.88722 eV ==== 
     psi = 0.175*[#  22]+0.175*[#  26]+0.159*[#   6]+0.159*[#  16]+0.061*[#   2]
          +0.061*[#  12]+0.039*[#  21]+0.039*[#  25]+0.013*[#   9]+0.013*[#  10]
          +0.013*[#  19]+0.013*[#  20]+0.011*[#  23]+0.011*[#  24]+0.011*[#  27]
          +0.011*[#  28]+0.006*[#   7]+0.006*[#   8]+0.006*[#  17]+0.006*[#  18]
          
    |psi|^2 = 0.987
==== e(  23) =     7.90216 eV ==== 
     psi = 0.166*[#  23]+0.166*[#  24]+0.166*[#  27]+0.166*[#  28]+0.051*[#   9]
          +0.051*[#  10]+0.051*[#  19]+0.051*[#  20]+0.021*[#  22]+0.021*[#  26]
          +0.011*[#   7]+0.011*[#   8]+0.011*[#  17]+0.011*[#  18]+0.005*[#   6]
          +0.005*[#  16]+0.004*[#   2]+0.004*[#  12]+0.002*[#  21]+0.002*[#  25]
          
    |psi|^2 = 0.973
==== e(  24) =     8.14739 eV ==== 
     psi = 0.176*[#  23]+0.176*[#  24]+0.176*[#  27]+0.176*[#  28]+0.047*[#   9]
          +0.047*[#  10]+0.047*[#  19]+0.047*[#  20]+0.013*[#  22]+0.013*[#  26]
          +0.012*[#   7]+0.012*[#   8]+0.012*[#  17]+0.012*[#  18]+0.004*[#   6]
          +0.004*[#  16]
    |psi|^2 = 0.981
==== e(  25) =     8.20111 eV ==== 
     psi = 0.161*[#  23]+0.161*[#  24]+0.161*[#  27]+0.161*[#  28]+0.043*[#  22]
          +0.043*[#  26]+0.041*[#   9]+0.041*[#  10]+0.041*[#  19]+0.041*[#  20]
          +0.014*[#   6]+0.014*[#  16]+0.013*[#   7]+0.013*[#   8]+0.013*[#  17]
          +0.013*[#  18]+0.001*[#   2]+0.001*[#  12]
    |psi|^2 = 0.979
==== e(  26) =     8.38561 eV ==== 
     psi = 0.185*[#  23]+0.185*[#  24]+0.185*[#  27]+0.185*[#  28]+0.044*[#   9]
          +0.044*[#  10]+0.044*[#  19]+0.044*[#  20]+0.017*[#   7]+0.017*[#   8]
          +0.017*[#  17]+0.017*[#  18]
    |psi|^2 = 0.985
==== e(  27) =    12.15467 eV ==== 
     psi = 0.279*[#   2]+0.279*[#  12]+0.099*[#  22]+0.099*[#  26]+0.070*[#  21]
          +0.070*[#  25]+0.016*[#  23]+0.016*[#  24]+0.016*[#  27]+0.016*[#  28]
          +0.002*[#   6]+0.002*[#  16]
    |psi|^2 = 0.965
==== e(  28) =    13.12611 eV ==== 
     psi = 0.299*[#   2]+0.299*[#  12]+0.091*[#  22]+0.091*[#  26]+0.053*[#  21]
          +0.053*[#  25]+0.011*[#  23]+0.011*[#  24]+0.011*[#  27]+0.011*[#  28]
          
    |psi|^2 = 0.933
==== e(  29) =    18.22838 eV ==== 
     psi = 0.016*[#  22]+0.016*[#  26]+0.009*[#   2]+0.009*[#  12]+0.002*[#  23]
          +0.002*[#  24]+0.002*[#  27]+0.002*[#  28]+0.001*[#  21]+0.001*[#  25]
          
    |psi|^2 = 0.063
==== e(  30) =    19.38289 eV ==== 
     psi = 0.005*[#  22]+0.005*[#  26]+0.003*[#   2]+0.003*[#  12]+0.002*[#  23]
          +0.002*[#  24]+0.002*[#  27]+0.002*[#  28]
    |psi|^2 = 0.027
==== e(  31) =    20.93579 eV ==== 
     psi = 0.004*[#  22]+0.004*[#  26]+0.002*[#   2]+0.002*[#  12]+0.002*[#  23]
          +0.002*[#  24]+0.002*[#  27]+0.002*[#  28]
    |psi|^2 = 0.022
==== e(  32) =    21.30419 eV ==== 
     psi = 0.005*[#  22]+0.005*[#  26]+0.004*[#   2]+0.004*[#  12]+0.002*[#  23]
          +0.002*[#  24]+0.002*[#  27]+0.002*[#  28]
    |psi|^2 = 0.028
==== e(  33) =    21.96042 eV ==== 
     psi = 0.002*[#  23]+0.002*[#  24]+0.002*[#  27]+0.002*[#  28]
    |psi|^2 = 0.009
==== e(  34) =    22.25421 eV ==== 
     psi = 0.002*[#  23]+0.002*[#  24]+0.002*[#  27]+0.002*[#  28]
    |psi|^2 = 0.011
==== e(  35) =    26.59580 eV ==== 

    |psi|^2 = 0.004
==== e(  36) =    27.24642 eV ==== 

    |psi|^2 = 0.005
==== e(  37) =    28.25871 eV ==== 

    |psi|^2 = 0.003
==== e(  38) =    29.15859 eV ==== 

    |psi|^2 = 0.003
==== e(  39) =    29.58257 eV ==== 

    |psi|^2 = 0.003
==== e(  40) =    30.09282 eV ==== 

    |psi|^2 = 0.003
==== e(  41) =    32.01812 eV ==== 

    |psi|^2 = 0.004
==== e(  42) =    32.52584 eV ==== 

    |psi|^2 = 0.003
==== e(  43) =    33.58688 eV ==== 

    |psi|^2 = 0.001
==== e(  44) =    34.69352 eV ==== 

    |psi|^2 = 0.003
==== e(  45) =    35.02214 eV ==== 

    |psi|^2 = 0.003
==== e(  46) =    35.86538 eV ==== 

    |psi|^2 = 0.004
==== e(  47) =    37.12752 eV ==== 

    |psi|^2 = 0.002
==== e(  48) =    38.85302 eV ==== 

    |psi|^2 = 0.002
==== e(  49) =    39.91372 eV ==== 

    |psi|^2 = 0.003
==== e(  50) =    40.30304 eV ==== 

    |psi|^2 = 0.004

 k =   0.0333333333  0.2116950987  0.0516614486
==== e(   1) =  -114.31744 eV ==== 
     psi = 0.497*[#   1]+0.497*[#  11]+0.002*[#   2]+0.002*[#  12]
    |psi|^2 = 1.000
==== e(   2) =  -114.31674 eV ==== 
     psi = 0.497*[#   1]+0.497*[#  11]+0.002*[#  22]+0.002*[#  26]
    |psi|^2 = 1.000
==== e(   3) =   -68.65436 eV ==== 
     psi = 0.499*[#   3]+0.499*[#  13]
    |psi|^2 = 1.000
==== e(   4) =   -68.65240 eV ==== 
     psi = 0.500*[#   3]+0.500*[#  13]
    |psi|^2 = 1.000
==== e(   5) =   -68.64827 eV ==== 
     psi = 0.250*[#   4]+0.250*[#   5]+0.250*[#  14]+0.250*[#  15]
    |psi|^2 = 1.000
==== e(   6) =   -68.64816 eV ==== 
     psi = 0.249*[#   4]+0.249*[#   5]+0.249*[#  14]+0.249*[#  15]
    |psi|^2 = 1.000
==== e(   7) =   -68.64771 eV ==== 
     psi = 0.250*[#   4]+0.250*[#   5]+0.250*[#  14]+0.250*[#  15]
    |psi|^2 = 1.000
==== e(   8) =   -68.64711 eV ==== 
     psi = 0.250*[#   4]+0.250*[#   5]+0.250*[#  14]+0.250*[#  15]
    |psi|^2 = 1.000
==== e(   9) =    -9.03662 eV ==== 
     psi = 0.365*[#  21]+0.365*[#  25]+0.129*[#   2]+0.129*[#  12]+0.001*[#   1]
          +0.001*[#  11]
    |psi|^2 = 0.998
==== e(  10) =    -8.41673 eV ==== 
     psi = 0.457*[#  21]+0.457*[#  25]+0.024*[#   2]+0.024*[#  12]+0.012*[#   6]
          +0.012*[#  16]+0.001*[#   9]+0.001*[#  10]+0.001*[#  19]+0.001*[#  20]
          
    |psi|^2 = 0.996
==== e(  11) =     2.87461 eV ==== 
     psi = 0.094*[#   9]+0.094*[#  10]+0.094*[#  19]+0.094*[#  20]+0.065*[#  23]
          +0.065*[#  24]+0.065*[#  27]+0.065*[#  28]+0.051*[#   7]+0.051*[#   8]
          +0.051*[#  17]+0.051*[#  18]+0.029*[#   6]+0.029*[#  16]+0.024*[#   2]
          +0.024*[#  12]+0.021*[#  22]+0.021*[#  26]+0.003*[#  21]+0.003*[#  25]
          
    |psi|^2 = 0.997
==== e(  12) =     3.12576 eV ==== 
     psi = 0.102*[#   9]+0.102*[#  10]+0.102*[#  19]+0.102*[#  20]+0.073*[#  22]
          +0.073*[#  26]+0.046*[#   6]+0.046*[#  16]+0.046*[#  23]+0.046*[#  24]
          +0.046*[#  27]+0.046*[#  28]+0.034*[#   7]+0.034*[#   8]+0.034*[#  17]
          +0.034*[#  18]+0.012*[#   2]+0.012*[#  12]
    |psi|^2 = 0.994
==== e(  13) =     3.17031 eV ==== 
     psi = 0.096*[#   9]+0.096*[#  10]+0.096*[#  19]+0.096*[#  20]+0.091*[#   6]
          +0.091*[#  16]+0.047*[#  23]+0.047*[#  24]+0.047*[#  27]+0.047*[#  28]
          +0.044*[#   7]+0.044*[#   8]+0.044*[#  17]+0.044*[#  18]+0.033*[#  22]
          +0.033*[#  26]+0.003*[#   2]+0.003*[#  12]
    |psi|^2 = 0.999
==== e(  14) =     3.24130 eV ==== 
     psi = 0.192*[#   6]+0.192*[#  16]+0.104*[#  22]+0.104*[#  26]+0.066*[#   9]
          +0.066*[#  10]+0.066*[#  19]+0.066*[#  20]+0.025*[#  23]+0.025*[#  24]
          +0.025*[#  27]+0.025*[#  28]+0.007*[#   7]+0.007*[#   8]+0.007*[#  17]
          +0.007*[#  18]+0.004*[#   2]+0.004*[#  12]
    |psi|^2 = 0.993
==== e(  15) =     3.39010 eV ==== 
     psi = 0.175*[#  22]+0.175*[#  26]+0.070*[#   6]+0.070*[#  16]+0.049*[#   2]
          +0.049*[#  12]+0.047*[#   9]+0.047*[#  10]+0.047*[#  19]+0.047*[#  20]
          +0.027*[#   7]+0.027*[#   8]+0.027*[#  17]+0.027*[#  18]+0.025*[#  23]
          +0.025*[#  24]+0.025*[#  27]+0.025*[#  28]+0.002*[#  21]+0.002*[#  25]
          
    |psi|^2 = 0.985
==== e(  16) =     3.40537 eV ==== 
     psi = 0.161*[#   9]+0.161*[#  10]+0.161*[#  19]+0.161*[#  20]+0.057*[#  23]
          +0.057*[#  24]+0.057*[#  27]+0.057*[#  28]+0.015*[#   7]+0.015*[#   8]
          +0.015*[#  17]+0.015*[#  18]+0.014*[#  22]+0.014*[#  26]+0.014*[#   6]
          +0.014*[#  16]+0.004*[#   2]+0.004*[#  12]
    |psi|^2 = 0.997
==== e(  17) =     4.19575 eV ==== 
     psi = 0.164*[#   7]+0.164*[#   8]+0.164*[#  17]+0.164*[#  18]+0.076*[#   9]
          +0.076*[#  10]+0.076*[#  19]+0.076*[#  20]+0.019*[#   6]+0.019*[#  16]
          
    |psi|^2 = 0.999
==== e(  18) =     4.26444 eV ==== 
     psi = 0.148*[#   7]+0.148*[#   8]+0.148*[#  17]+0.148*[#  18]+0.102*[#   9]
          +0.102*[#  10]+0.102*[#  19]+0.102*[#  20]
    |psi|^2 = 0.999
==== e(  19) =     4.48487 eV ==== 
     psi = 0.232*[#   7]+0.232*[#   8]+0.232*[#  17]+0.232*[#  18]+0.018*[#   9]
          +0.018*[#  10]+0.018*[#  19]+0.018*[#  20]
    |psi|^2 = 1.000
==== e(  20) =     4.56894 eV ==== 
     psi = 0.187*[#   7]+0.187*[#   8]+0.187*[#  17]+0.187*[#  18]+0.068*[#   6]
          +0.068*[#  16]+0.030*[#  22]+0.030*[#  26]+0.009*[#   2]+0.009*[#  12]
          +0.007*[#   9]+0.007*[#  10]+0.007*[#  19]+0.007*[#  20]+0.002*[#  21]
          +0.002*[#  25]
    |psi|^2 = 0.998
==== e(  21) =     4.85408 eV ==== 
     psi = 0.340*[#   6]+0.340*[#  16]+0.061*[#  22]+0.061*[#  26]+0.029*[#   7]
          +0.029*[#   8]+0.029*[#  17]+0.029*[#  18]+0.015*[#   2]+0.015*[#  12]
          +0.011*[#  21]+0.011*[#  25]+0.003*[#   9]+0.003*[#  10]+0.003*[#  19]
          +0.003*[#  20]+0.002*[#  23]+0.002*[#  24]+0.002*[#  27]+0.002*[#  28]
          
    |psi|^2 = 0.992
==== e(  22) =     6.94212 eV ==== 
     psi = 0.142*[#  23]+0.142*[#  24]+0.142*[#  27]+0.142*[#  28]+0.073*[#   9]
          +0.073*[#  10]+0.073*[#  19]+0.073*[#  20]+0.023*[#   2]+0.023*[#  12]
          +0.011*[#  21]+0.011*[#  25]+0.008*[#  22]+0.008*[#  26]+0.003*[#   6]
          +0.003*[#  16]+0.003*[#   7]+0.003*[#   8]+0.003*[#  17]+0.003*[#  18]
          
    |psi|^2 = 0.965
==== e(  23) =     7.45384 eV ==== 
     psi = 0.128*[#  23]+0.128*[#  24]+0.128*[#  27]+0.128*[#  28]+0.054*[#   9]
          +0.054*[#  10]+0.054*[#  19]+0.054*[#  20]+0.045*[#   2]+0.045*[#  12]
          +0.027*[#  21]+0.027*[#  25]+0.020*[#   7]+0.020*[#   8]+0.020*[#  17]
          +0.020*[#  18]+0.010*[#  22]+0.010*[#  26]+0.006*[#   6]+0.006*[#  16]
          
    |psi|^2 = 0.982
==== e(  24) =     7.64722 eV ==== 
     psi = 0.165*[#  23]+0.165*[#  24]+0.165*[#  27]+0.165*[#  28]+0.053*[#   9]
          +0.053*[#  10]+0.053*[#  19]+0.053*[#  20]+0.014*[#   2]+0.014*[#  12]
          +0.011*[#   7]+0.011*[#   8]+0.011*[#  17]+0.011*[#  18]+0.008*[#  21]
          +0.008*[#  25]+0.006*[#  22]+0.006*[#  26]+0.002*[#   6]+0.002*[#  16]
          
    |psi|^2 = 0.978
==== e(  25) =     8.47729 eV ==== 
     psi = 0.351*[#  22]+0.351*[#  26]+0.103*[#   6]+0.103*[#  16]+0.012*[#  23]
          +0.012*[#  24]+0.012*[#  27]+0.012*[#  28]+0.005*[#   9]+0.005*[#  10]
          +0.005*[#  19]+0.005*[#  20]+0.002*[#   7]+0.002*[#   8]+0.002*[#  17]
          +0.002*[#  18]
    |psi|^2 = 0.987
==== e(  26) =     8.55735 eV ==== 
     psi = 0.185*[#  23]+0.185*[#  24]+0.185*[#  27]+0.185*[#  28]+0.037*[#   9]
          +0.037*[#  10]+0.037*[#  19]+0.037*[#  20]+0.025*[#   7]+0.025*[#   8]
          +0.025*[#  17]+0.025*[#  18]
    |psi|^2 = 0.988
==== e(  27) =    11.31818 eV ==== 
     psi = 0.269*[#   2]+0.269*[#  12]+0.085*[#  21]+0.085*[#  25]+0.060*[#  23]
          +0.060*[#  24]+0.060*[#  27]+0.060*[#  28]+0.008*[#  22]+0.008*[#  26]
          +0.001*[#   9]+0.001*[#  10]+0.001*[#  19]+0.001*[#  20]
    |psi|^2 = 0.976
==== e(  28) =    15.12967 eV ==== 
     psi = 0.298*[#   2]+0.298*[#  12]+0.043*[#  22]+0.043*[#  26]+0.020*[#  21]
          +0.020*[#  25]+0.017*[#  23]+0.017*[#  24]+0.017*[#  27]+0.017*[#  28]
          +0.002*[#   1]+0.002*[#  11]
    |psi|^2 = 0.793
==== e(  29) =    16.96310 eV ==== 
     psi = 0.046*[#   2]+0.046*[#  12]+0.042*[#  22]+0.042*[#  26]+0.001*[#   6]
          +0.001*[#  16]+0.001*[#  23]+0.001*[#  24]+0.001*[#  27]+0.001*[#  28]
          
    |psi|^2 = 0.186
==== e(  30) =    19.31574 eV ==== 
     psi = 0.004*[#  23]+0.004*[#  24]+0.004*[#  27]+0.004*[#  28]+0.003*[#   2]
          +0.003*[#  12]
    |psi|^2 = 0.027
==== e(  31) =    21.05617 eV ==== 
     psi = 0.011*[#   2]+0.011*[#  12]+0.004*[#  22]+0.004*[#  26]+0.004*[#  23]
          +0.004*[#  24]+0.004*[#  27]+0.004*[#  28]
    |psi|^2 = 0.048
==== e(  32) =    21.94141 eV ==== 
     psi = 0.002*[#  23]+0.002*[#  24]+0.002*[#  27]+0.002*[#  28]
    |psi|^2 = 0.013
==== e(  33) =    22.39060 eV ==== 
     psi = 0.001*[#  22]+0.001*[#  26]
    |psi|^2 = 0.006
==== e(  34) =    23.16644 eV ==== 
     psi = 0.003*[#  23]+0.003*[#  24]+0.003*[#  27]+0.003*[#  28]
    |psi|^2 = 0.014
==== e(  35) =    24.17252 eV ==== 
     psi = 0.002*[#   2]+0.002*[#  12]+0.001*[#  22]+0.001*[#  26]
    |psi|^2 = 0.010
==== e(  36) =    25.92212 eV ==== 

    |psi|^2 = 0.004
==== e(  37) =    27.52219 eV ==== 
     psi = 0.002*[#   2]+0.002*[#  12]+0.001*[#  22]+0.001*[#  26]
    |psi|^2 = 0.008
==== e(  38) =    29.92881 eV ==== 
     psi = 0.001*[#   2]+0.001*[#  12]
    |psi|^2 = 0.006
==== e(  39) =    30.68111 eV ==== 

    |psi|^2 = 0.002
==== e(  40) =    31.59348 eV ==== 

    |psi|^2 = 0.002
==== e(  41) =    32.14324 eV ==== 

    |psi|^2 = 0.003
==== e(  42) =    32.46469 eV ==== 

    |psi|^2 = 0.003
==== e(  43) =    33.88718 eV ==== 

    |psi|^2 = 0.003
==== e(  44) =    35.39038 eV ==== 

    |psi|^2 = 0.004
==== e(  45) =    35.81331 eV ==== 

    |psi|^2 = 0.003
==== e(  46) =    37.03883 eV ==== 
     psi = 0.001*[#  23]+0.001*[#  24]+0.001*[#  27]+0.001*[#  28]
    |psi|^2 = 0.005
==== e(  47) =    37.07598 eV ==== 

    |psi|^2 = 0.004
==== e(  48) =    38.35266 eV ==== 

    |psi|^2 = 0.004
==== e(  49) =    38.73726 eV ==== 

    |psi|^2 = 0.004
==== e(  50) =    39.67315 eV ==== 

    |psi|^2 = 0.003

 k =   0.0333333333  0.2116950987  0.1549843459
==== e(   1) =  -114.31734 eV ==== 
     psi = 0.497*[#   1]+0.497*[#  11]+0.001*[#   2]+0.001*[#  12]
    |psi|^2 = 1.000
==== e(   2) =  -114.31683 eV ==== 
     psi = 0.497*[#   1]+0.497*[#  11]+0.002*[#  22]+0.002*[#  26]
    |psi|^2 = 1.000
==== e(   3) =   -68.65443 eV ==== 
     psi = 0.498*[#   3]+0.498*[#  13]
    |psi|^2 = 1.000
==== e(   4) =   -68.65263 eV ==== 
     psi = 0.495*[#   3]+0.495*[#  13]+0.002*[#   4]+0.002*[#   5]+0.002*[#  14]
          +0.002*[#  15]
    |psi|^2 = 1.000
==== e(   5) =   -68.64826 eV ==== 
     psi = 0.248*[#   4]+0.248*[#   5]+0.248*[#  14]+0.248*[#  15]+0.003*[#   3]
          +0.003*[#  13]
    |psi|^2 = 1.000
==== e(   6) =   -68.64819 eV ==== 
     psi = 0.249*[#   4]+0.249*[#   5]+0.249*[#  14]+0.249*[#  15]+0.002*[#   3]
          +0.002*[#  13]
    |psi|^2 = 1.000
==== e(   7) =   -68.64782 eV ==== 
     psi = 0.249*[#   4]+0.249*[#   5]+0.249*[#  14]+0.249*[#  15]
    |psi|^2 = 1.000
==== e(   8) =   -68.64698 eV ==== 
     psi = 0.250*[#   4]+0.250*[#   5]+0.250*[#  14]+0.250*[#  15]
    |psi|^2 = 1.000
==== e(   9) =    -8.95572 eV ==== 
     psi = 0.375*[#  21]+0.375*[#  25]+0.118*[#   2]+0.118*[#  12]+0.001*[#   1]
          +0.001*[#   6]+0.001*[#  11]+0.001*[#  16]
    |psi|^2 = 0.998
==== e(  10) =    -8.50181 eV ==== 
     psi = 0.442*[#  21]+0.442*[#  25]+0.042*[#   2]+0.042*[#  12]+0.010*[#   6]
          +0.010*[#  16]+0.001*[#   9]+0.001*[#  10]+0.001*[#  19]+0.001*[#  20]
          
    |psi|^2 = 0.997
==== e(  11) =     2.81298 eV ==== 
     psi = 0.072*[#   9]+0.072*[#  10]+0.072*[#  19]+0.072*[#  20]+0.071*[#   6]
          +0.071*[#  16]+0.057*[#  22]+0.057*[#  26]+0.052*[#  23]+0.052*[#  24]
          +0.052*[#  27]+0.052*[#  28]+0.042*[#   7]+0.042*[#   8]+0.042*[#  17]
          +0.042*[#  18]+0.035*[#   2]+0.035*[#  12]+0.004*[#  21]+0.004*[#  25]
          
    |psi|^2 = 0.997
==== e(  12) =     2.93282 eV ==== 
     psi = 0.136*[#  22]+0.136*[#  26]+0.074*[#   6]+0.074*[#  16]+0.060*[#   9]
          +0.060*[#  10]+0.060*[#  19]+0.060*[#  20]+0.051*[#   2]+0.051*[#  12]
          +0.034*[#  23]+0.034*[#  24]+0.034*[#  27]+0.034*[#  28]+0.022*[#   7]
          +0.022*[#   8]+0.022*[#  17]+0.022*[#  18]+0.002*[#  21]+0.002*[#  25]
          
    |psi|^2 = 0.993
==== e(  13) =     3.18410 eV ==== 
     psi = 0.110*[#   9]+0.110*[#  10]+0.110*[#  19]+0.110*[#  20]+0.061*[#   7]
          +0.061*[#   8]+0.061*[#  17]+0.061*[#  18]+0.056*[#  23]+0.056*[#  24]
          +0.056*[#  27]+0.056*[#  28]+0.032*[#   6]+0.032*[#  16]+0.011*[#  22]
          +0.011*[#  26]
    |psi|^2 = 0.999
==== e(  14) =     3.21263 eV ==== 
     psi = 0.213*[#   6]+0.213*[#  16]+0.077*[#  22]+0.077*[#  26]+0.063*[#   9]
          +0.063*[#  10]+0.063*[#  19]+0.063*[#  20]+0.026*[#  23]+0.026*[#  24]
          +0.026*[#  27]+0.026*[#  28]+0.015*[#   7]+0.015*[#   8]+0.015*[#  17]
          +0.015*[#  18]+0.003*[#   2]+0.003*[#  12]
    |psi|^2 = 0.998
==== e(  15) =     3.32405 eV ==== 
     psi = 0.130*[#   6]+0.130*[#  16]+0.093*[#   9]+0.093*[#  10]+0.093*[#  19]
          +0.093*[#  20]+0.078*[#  22]+0.078*[#  26]+0.036*[#  23]+0.036*[#  24]
          +0.036*[#  27]+0.036*[#  28]+0.013*[#   2]+0.013*[#  12]+0.008*[#   7]
          +0.008*[#   8]+0.008*[#  17]+0.008*[#  18]
    |psi|^2 = 0.994
==== e(  16) =     3.36141 eV ==== 
     psi = 0.159*[#   9]+0.159*[#  10]+0.159*[#  19]+0.159*[#  20]+0.060*[#  23]
          +0.060*[#  24]+0.060*[#  27]+0.060*[#  28]+0.025*[#   7]+0.025*[#   8]
          +0.025*[#  17]+0.025*[#  18]+0.008*[#   6]+0.008*[#  16]+0.002*[#  22]
          +0.002*[#  26]
    |psi|^2 = 0.998
==== e(  17) =     4.25766 eV ==== 
     psi = 0.171*[#   7]+0.171*[#   8]+0.171*[#  17]+0.171*[#  18]+0.069*[#   9]
          +0.069*[#  10]+0.069*[#  19]+0.069*[#  20]+0.018*[#   6]+0.018*[#  16]
          
    |psi|^2 = 0.999
==== e(  18) =     4.29979 eV ==== 
     psi = 0.155*[#   7]+0.155*[#   8]+0.155*[#  17]+0.155*[#  18]+0.094*[#   9]
          +0.094*[#  10]+0.094*[#  19]+0.094*[#  20]
    |psi|^2 = 0.999
==== e(  19) =     4.46101 eV ==== 
     psi = 0.215*[#   7]+0.215*[#   8]+0.215*[#  17]+0.215*[#  18]+0.035*[#   9]
          +0.035*[#  10]+0.035*[#  19]+0.035*[#  20]
    |psi|^2 = 1.000
==== e(  20) =     4.50307 eV ==== 
     psi = 0.205*[#   7]+0.205*[#   8]+0.205*[#  17]+0.205*[#  18]+0.036*[#   6]
          +0.036*[#  16]+0.021*[#   9]+0.021*[#  10]+0.021*[#  19]+0.021*[#  20]
          +0.006*[#  22]+0.006*[#  26]+0.003*[#   2]+0.003*[#  12]+0.001*[#  21]
          +0.001*[#  25]
    |psi|^2 = 0.999
==== e(  21) =     5.45528 eV ==== 
     psi = 0.266*[#   6]+0.266*[#  16]+0.139*[#  22]+0.139*[#  26]+0.027*[#   2]
          +0.027*[#  12]+0.018*[#  21]+0.018*[#  25]+0.011*[#   7]+0.011*[#   8]
          +0.011*[#  17]+0.011*[#  18]+0.008*[#   9]+0.008*[#  10]+0.008*[#  19]
          +0.008*[#  20]+0.002*[#  23]+0.002*[#  24]+0.002*[#  27]+0.002*[#  28]
          
    |psi|^2 = 0.982
==== e(  22) =     7.01945 eV ==== 
     psi = 0.107*[#  23]+0.107*[#  24]+0.107*[#  27]+0.107*[#  28]+0.056*[#   9]
          +0.056*[#  10]+0.056*[#  19]+0.056*[#  20]+0.042*[#   2]+0.042*[#  12]
          +0.037*[#  22]+0.037*[#  26]+0.032*[#   6]+0.032*[#  16]+0.026*[#  21]
          +0.026*[#  25]+0.013*[#   7]+0.013*[#   8]+0.013*[#  17]+0.013*[#  18]
          
    |psi|^2 = 0.975
==== e(  23) =     7.30217 eV ==== 
     psi = 0.113*[#  23]+0.113*[#  24]+0.113*[#  27]+0.113*[#  28]+0.052*[#  22]
          +0.052*[#  26]+0.051*[#   9]+0.051*[#  10]+0.051*[#  19]+0.051*[#  20]
          +0.032*[#   2]+0.032*[#  12]+0.025*[#   6]+0.025*[#  16]+0.018*[#  21]
          +0.018*[#  25]+0.015*[#   7]+0.015*[#   8]+0.015*[#  17]+0.015*[#  18]
          
    |psi|^2 = 0.974
==== e(  24) =     7.73615 eV ==== 
     psi = 0.179*[#  23]+0.179*[#  24]+0.179*[#  27]+0.179*[#  28]+0.052*[#   9]
          +0.052*[#  10]+0.052*[#  19]+0.052*[#  20]+0.010*[#   7]+0.010*[#   8]
          +0.010*[#  17]+0.010*[#  18]+0.004*[#  22]+0.004*[#  26]+0.001*[#   6]
          +0.001*[#  16]
    |psi|^2 = 0.976
==== e(  25) =     8.30628 eV ==== 
     psi = 0.236*[#  22]+0.236*[#  26]+0.078*[#   6]+0.078*[#  16]+0.068*[#  23]
          +0.068*[#  24]+0.068*[#  27]+0.068*[#  28]+0.015*[#   9]+0.015*[#  10]
          +0.015*[#  19]+0.015*[#  20]+0.007*[#   7]+0.007*[#   8]+0.007*[#  17]
          +0.007*[#  18]
    |psi|^2 = 0.984
==== e(  26) =     8.43240 eV ==== 
     psi = 0.184*[#  23]+0.184*[#  24]+0.184*[#  27]+0.184*[#  28]+0.038*[#   9]
          +0.038*[#  10]+0.038*[#  19]+0.038*[#  20]+0.023*[#   7]+0.023*[#   8]
          +0.023*[#  17]+0.023*[#  18]+0.001*[#  22]+0.001*[#  26]
    |psi|^2 = 0.985
==== e(  27) =    11.79648 eV ==== 
     psi = 0.273*[#   2]+0.273*[#  12]+0.076*[#  21]+0.076*[#  25]+0.049*[#  22]
          +0.049*[#  26]+0.040*[#  23]+0.040*[#  24]+0.040*[#  27]+0.040*[#  28]
          
    |psi|^2 = 0.963
==== e(  28) =    14.48723 eV ==== 
     psi = 0.302*[#   2]+0.302*[#  12]+0.066*[#  22]+0.066*[#  26]+0.029*[#  21]
          +0.029*[#  25]+0.015*[#  23]+0.015*[#  24]+0.015*[#  27]+0.015*[#  28]
          +0.001*[#   1]+0.001*[#  11]
    |psi|^2 = 0.856
==== e(  29) =    17.42135 eV ==== 
     psi = 0.027*[#   2]+0.027*[#  12]+0.023*[#  22]+0.023*[#  26]+0.004*[#  23]
          +0.004*[#  24]+0.004*[#  27]+0.004*[#  28]+0.001*[#  21]+0.001*[#  25]
          +0.001*[#   6]+0.001*[#  16]
    |psi|^2 = 0.123
==== e(  30) =    19.40305 eV ==== 
     psi = 0.005*[#   2]+0.005*[#  12]+0.004*[#  23]+0.004*[#  24]+0.004*[#  27]
          +0.004*[#  28]+0.001*[#  21]+0.001*[#  25]+0.001*[#  22]+0.001*[#  26]
          
    |psi|^2 = 0.034
==== e(  31) =    20.74476 eV ==== 
     psi = 0.010*[#   2]+0.010*[#  12]+0.007*[#  22]+0.007*[#  26]+0.003*[#  23]
          +0.003*[#  24]+0.003*[#  27]+0.003*[#  28]
    |psi|^2 = 0.050
==== e(  32) =    21.37732 eV ==== 
     psi = 0.004*[#  22]+0.004*[#  26]+0.003*[#   2]+0.003*[#  12]+0.001*[#  23]
          +0.001*[#  24]+0.001*[#  27]+0.001*[#  28]
    |psi|^2 = 0.021
==== e(  33) =    21.97697 eV ==== 
     psi = 0.003*[#  23]+0.003*[#  24]+0.003*[#  27]+0.003*[#  28]
    |psi|^2 = 0.012
==== e(  34) =    22.76721 eV ==== 
     psi = 0.003*[#  23]+0.003*[#  24]+0.003*[#  27]+0.003*[#  28]
    |psi|^2 = 0.014
==== e(  35) =    24.84006 eV ==== 
     psi = 0.001*[#   2]+0.001*[#  12]+0.001*[#  22]+0.001*[#  26]
    |psi|^2 = 0.008
==== e(  36) =    26.74173 eV ==== 

    |psi|^2 = 0.003
==== e(  37) =    27.72866 eV ==== 

    |psi|^2 = 0.005
==== e(  38) =    29.92834 eV ==== 

    |psi|^2 = 0.004
==== e(  39) =    30.84642 eV ==== 

    |psi|^2 = 0.003
==== e(  40) =    31.20372 eV ==== 

    |psi|^2 = 0.002
==== e(  41) =    32.31910 eV ==== 

    |psi|^2 = 0.002
==== e(  42) =    32.58555 eV ==== 

    |psi|^2 = 0.004
==== e(  43) =    33.63459 eV ==== 

    |psi|^2 = 0.002
==== e(  44) =    35.24962 eV ==== 

    |psi|^2 = 0.004
==== e(  45) =    36.14287 eV ==== 

    |psi|^2 = 0.003
==== e(  46) =    36.20732 eV ==== 
     psi = 0.001*[#  23]+0.001*[#  24]+0.001*[#  27]+0.001*[#  28]
    |psi|^2 = 0.005
==== e(  47) =    37.33314 eV ==== 

    |psi|^2 = 0.005
==== e(  48) =    38.55481 eV ==== 

    |psi|^2 = 0.003
==== e(  49) =    39.46572 eV ==== 

    |psi|^2 = 0.003
==== e(  50) =    40.11523 eV ==== 

    |psi|^2 = 0.003

 k =   0.0333333333  0.2116950987  0.2583072432
==== e(   1) =  -114.31727 eV ==== 
     psi = 0.498*[#   1]+0.498*[#  11]
    |psi|^2 = 1.000
==== e(   2) =  -114.31701 eV ==== 
     psi = 0.498*[#   1]+0.498*[#  11]+0.001*[#  22]+0.001*[#  26]
    |psi|^2 = 1.000
==== e(   3) =   -68.65404 eV ==== 
     psi = 0.497*[#   3]+0.497*[#  13]+0.001*[#   4]+0.001*[#   5]+0.001*[#  14]
          +0.001*[#  15]
    |psi|^2 = 1.000
==== e(   4) =   -68.65360 eV ==== 
     psi = 0.497*[#   3]+0.497*[#  13]+0.001*[#   4]+0.001*[#   5]+0.001*[#  14]
          +0.001*[#  15]
    |psi|^2 = 1.000
==== e(   5) =   -68.64834 eV ==== 
     psi = 0.249*[#   4]+0.249*[#   5]+0.249*[#  14]+0.249*[#  15]+0.003*[#   3]
          +0.003*[#  13]
    |psi|^2 = 1.000
==== e(   6) =   -68.64808 eV ==== 
     psi = 0.249*[#   4]+0.249*[#   5]+0.249*[#  14]+0.249*[#  15]+0.002*[#   3]
          +0.002*[#  13]
    |psi|^2 = 1.000
==== e(   7) =   -68.64767 eV ==== 
     psi = 0.250*[#   4]+0.250*[#   5]+0.250*[#  14]+0.250*[#  15]
    |psi|^2 = 1.000
==== e(   8) =   -68.64748 eV ==== 
     psi = 0.250*[#   4]+0.250*[#   5]+0.250*[#  14]+0.250*[#  15]
    |psi|^2 = 1.000
==== e(   9) =    -8.81403 eV ==== 
     psi = 0.394*[#  21]+0.394*[#  25]+0.098*[#   2]+0.098*[#  12]+0.003*[#   6]
          +0.003*[#  16]
    |psi|^2 = 0.998
==== e(  10) =    -8.64780 eV ==== 
     psi = 0.418*[#  21]+0.418*[#  25]+0.070*[#   2]+0.070*[#  12]+0.006*[#   6]
          +0.006*[#  16]+0.001*[#   9]+0.001*[#  10]+0.001*[#  19]+0.001*[#  20]
          
    |psi|^2 = 0.998
==== e(  11) =     2.74616 eV ==== 
     psi = 0.105*[#   6]+0.105*[#  16]+0.097*[#  22]+0.097*[#  26]+0.052*[#   9]
          +0.052*[#  10]+0.052*[#  19]+0.052*[#  20]+0.049*[#   2]+0.049*[#  12]
          +0.038*[#  23]+0.038*[#  24]+0.038*[#  27]+0.038*[#  28]+0.031*[#   7]
          +0.031*[#   8]+0.031*[#  17]+0.031*[#  18]+0.004*[#  21]+0.004*[#  25]
          
    |psi|^2 = 0.997
==== e(  12) =     2.77294 eV ==== 
     psi = 0.114*[#  22]+0.114*[#  26]+0.110*[#   6]+0.110*[#  16]+0.054*[#   2]
          +0.054*[#  12]+0.048*[#   9]+0.048*[#  10]+0.048*[#  19]+0.048*[#  20]
          +0.034*[#  23]+0.034*[#  24]+0.034*[#  27]+0.034*[#  28]+0.026*[#   7]
          +0.026*[#   8]+0.026*[#  17]+0.026*[#  18]+0.003*[#  21]+0.003*[#  25]
          
    |psi|^2 = 0.997
==== e(  13) =     3.21514 eV ==== 
     psi = 0.152*[#   6]+0.152*[#  16]+0.091*[#   9]+0.091*[#  10]+0.091*[#  19]
          +0.091*[#  20]+0.050*[#  22]+0.050*[#  26]+0.038*[#  23]+0.038*[#  24]
          +0.038*[#  27]+0.038*[#  28]+0.019*[#   7]+0.019*[#   8]+0.019*[#  17]
          +0.019*[#  18]+0.001*[#   2]+0.001*[#  12]
    |psi|^2 = 0.998
==== e(  14) =     3.22768 eV ==== 
     psi = 0.116*[#   9]+0.116*[#  10]+0.116*[#  19]+0.116*[#  20]+0.055*[#  23]
          +0.055*[#  24]+0.055*[#  27]+0.055*[#  28]+0.048*[#   6]+0.048*[#  16]
          +0.046*[#   7]+0.046*[#   8]+0.046*[#  17]+0.046*[#  18]+0.015*[#  22]
          +0.015*[#  26]+0.001*[#   2]+0.001*[#  12]
    |psi|^2 = 0.998
==== e(  15) =     3.26876 eV ==== 
     psi = 0.135*[#   6]+0.135*[#  16]+0.100*[#   9]+0.100*[#  10]+0.100*[#  19]
          +0.100*[#  20]+0.051*[#  22]+0.051*[#  26]+0.039*[#  23]+0.039*[#  24]
          +0.039*[#  27]+0.039*[#  28]+0.015*[#   7]+0.015*[#   8]+0.015*[#  17]
          +0.015*[#  18]+0.003*[#   2]+0.003*[#  12]
    |psi|^2 = 0.997
==== e(  16) =     3.29752 eV ==== 
     psi = 0.140*[#   9]+0.140*[#  10]+0.140*[#  19]+0.140*[#  20]+0.059*[#  23]
          +0.059*[#  24]+0.059*[#  27]+0.059*[#  28]+0.041*[#   7]+0.041*[#   8]
          +0.041*[#  17]+0.041*[#  18]+0.014*[#   6]+0.014*[#  16]+0.005*[#  22]
          +0.005*[#  26]
    |psi|^2 = 0.998
==== e(  17) =     4.34673 eV ==== 
     psi = 0.182*[#   7]+0.182*[#   8]+0.182*[#  17]+0.182*[#  18]+0.057*[#   9]
          +0.057*[#  10]+0.057*[#  19]+0.057*[#  20]+0.019*[#   6]+0.019*[#  16]
          +0.001*[#  22]+0.001*[#  26]
    |psi|^2 = 0.999
==== e(  18) =     4.35620 eV ==== 
     psi = 0.170*[#   7]+0.170*[#   8]+0.170*[#  17]+0.170*[#  18]+0.079*[#   9]
          +0.079*[#  10]+0.079*[#  19]+0.079*[#  20]
    |psi|^2 = 1.000
==== e(  19) =     4.41524 eV ==== 
     psi = 0.192*[#   7]+0.192*[#   8]+0.192*[#  17]+0.192*[#  18]+0.058*[#   9]
          +0.058*[#  10]+0.058*[#  19]+0.058*[#  20]
    |psi|^2 = 1.000
==== e(  20) =     4.43402 eV ==== 
     psi = 0.196*[#   7]+0.196*[#   8]+0.196*[#  17]+0.196*[#  18]+0.040*[#   9]
          +0.040*[#  10]+0.040*[#  19]+0.040*[#  20]+0.023*[#   6]+0.023*[#  16]
          +0.002*[#  22]+0.002*[#  26]+0.001*[#   2]+0.001*[#  12]
    |psi|^2 = 0.999
==== e(  21) =     6.15125 eV ==== 
     psi = 0.194*[#   6]+0.194*[#  16]+0.155*[#  22]+0.155*[#  26]+0.043*[#   2]
          +0.043*[#  12]+0.028*[#  21]+0.028*[#  25]+0.018*[#   9]+0.018*[#  10]
          +0.018*[#  19]+0.018*[#  20]+0.010*[#   7]+0.010*[#   8]+0.010*[#  17]
          +0.010*[#  18]+0.008*[#  23]+0.008*[#  24]+0.008*[#  27]+0.008*[#  28]
          
    |psi|^2 = 0.985
==== e(  22) =     6.71817 eV ==== 
     psi = 0.120*[#  22]+0.120*[#  26]+0.118*[#   6]+0.118*[#  16]+0.057*[#   2]
          +0.057*[#  12]+0.036*[#  21]+0.036*[#  25]+0.033*[#  23]+0.033*[#  24]
          +0.033*[#  27]+0.033*[#  28]+0.032*[#   9]+0.032*[#  10]+0.032*[#  19]
          +0.032*[#  20]+0.016*[#   7]+0.016*[#   8]+0.016*[#  17]+0.016*[#  18]
          
    |psi|^2 = 0.988
==== e(  23) =     7.50104 eV ==== 
     psi = 0.142*[#  23]+0.142*[#  24]+0.142*[#  27]+0.142*[#  28]+0.058*[#  22]
          +0.058*[#  26]+0.047*[#   9]+0.047*[#  10]+0.047*[#  19]+0.047*[#  20]
          +0.019*[#   6]+0.019*[#  16]+0.010*[#   7]+0.010*[#   8]+0.010*[#  17]
[...]
==== e(   5) =   -68.64838 eV ==== 
     psi = 0.249*[#   4]+0.249*[#   5]+0.249*[#  14]+0.249*[#  15]+0.003*[#   3]
          +0.003*[#  13]
    |psi|^2 = 1.000
==== e(   6) =   -68.64826 eV ==== 
     psi = 0.250*[#   4]+0.250*[#   5]+0.250*[#  14]+0.250*[#  15]
    |psi|^2 = 1.000
==== e(   7) =   -68.64811 eV ==== 
     psi = 0.249*[#   4]+0.249*[#   5]+0.249*[#  14]+0.249*[#  15]+0.002*[#   3]
          +0.002*[#  13]
    |psi|^2 = 1.000
==== e(   8) =   -68.64721 eV ==== 
     psi = 0.250*[#   4]+0.250*[#   5]+0.250*[#  14]+0.250*[#  15]
    |psi|^2 = 1.000
==== e(   9) =    -8.48191 eV ==== 
     psi = 0.449*[#  21]+0.449*[#  25]+0.035*[#   2]+0.035*[#  12]+0.004*[#   9]
          +0.004*[#  10]+0.004*[#  19]+0.004*[#  20]+0.002*[#   6]+0.002*[#  16]
          +0.002*[#   7]+0.002*[#   8]+0.002*[#  17]+0.002*[#  18]
    |psi|^2 = 0.996
==== e(  10) =    -8.31963 eV ==== 
     psi = 0.476*[#  21]+0.476*[#  25]+0.005*[#   6]+0.005*[#  16]+0.004*[#   2]
          +0.004*[#  12]+0.004*[#   9]+0.004*[#  10]+0.004*[#  19]+0.004*[#  20]
          +0.002*[#   7]+0.002*[#   8]+0.002*[#  17]+0.002*[#  18]
    |psi|^2 = 0.994
==== e(  11) =     2.72179 eV ==== 
     psi = 0.074*[#   7]+0.074*[#   8]+0.074*[#  17]+0.074*[#  18]+0.073*[#  23]
          +0.073*[#  24]+0.073*[#  27]+0.073*[#  28]+0.054*[#  22]+0.054*[#  26]
          +0.053*[#   6]+0.053*[#  16]+0.038*[#   2]+0.038*[#  12]+0.028*[#   9]
          +0.028*[#  10]+0.028*[#  19]+0.028*[#  20]+0.002*[#  21]+0.002*[#  25]
          
    |psi|^2 = 0.994
==== e(  12) =     2.81266 eV ==== 
     psi = 0.094*[#  23]+0.094*[#  24]+0.094*[#  27]+0.094*[#  28]+0.079*[#   2]
          +0.079*[#  12]+0.057*[#  22]+0.057*[#  26]+0.051*[#   9]+0.051*[#  10]
          +0.051*[#  19]+0.051*[#  20]+0.031*[#   7]+0.031*[#   8]+0.031*[#  17]
          +0.031*[#  18]+0.007*[#   6]+0.007*[#  16]
    |psi|^2 = 0.993
==== e(  13) =     3.38315 eV ==== 
     psi = 0.152*[#   7]+0.152*[#   8]+0.152*[#  17]+0.152*[#  18]+0.058*[#  23]
          +0.058*[#  24]+0.058*[#  27]+0.058*[#  28]+0.040*[#   9]+0.040*[#  10]
          +0.040*[#  19]+0.040*[#  20]
    |psi|^2 = 0.998
==== e(  14) =     3.63356 eV ==== 
     psi = 0.226*[#   6]+0.226*[#  16]+0.099*[#  22]+0.099*[#  26]+0.045*[#  23]
          +0.045*[#  24]+0.045*[#  27]+0.045*[#  28]+0.028*[#   9]+0.028*[#  10]
          +0.028*[#  19]+0.028*[#  20]+0.007*[#   7]+0.007*[#   8]+0.007*[#  17]
          +0.007*[#  18]+0.004*[#   2]+0.004*[#  12]+0.002*[#  21]+0.002*[#  25]
          
    |psi|^2 = 0.983
==== e(  15) =     3.67136 eV ==== 
     psi = 0.253*[#   6]+0.253*[#  16]+0.065*[#  22]+0.065*[#  26]+0.038*[#   7]
          +0.038*[#   8]+0.038*[#  17]+0.038*[#  18]+0.026*[#  23]+0.026*[#  24]
          +0.026*[#  27]+0.026*[#  28]+0.019*[#   9]+0.019*[#  10]+0.019*[#  19]
          +0.019*[#  20]+0.013*[#   2]+0.013*[#  12]
    |psi|^2 = 0.995
==== e(  16) =     3.76345 eV ==== 
     psi = 0.102*[#   9]+0.102*[#  10]+0.102*[#  19]+0.102*[#  20]+0.087*[#   7]
          +0.087*[#   8]+0.087*[#  17]+0.087*[#  18]+0.060*[#  23]+0.060*[#  24]
          +0.060*[#  27]+0.060*[#  28]
    |psi|^2 = 0.996
==== e(  17) =     4.41666 eV ==== 
     psi = 0.120*[#   7]+0.120*[#   8]+0.120*[#  17]+0.120*[#  18]+0.100*[#   6]
          +0.100*[#  16]+0.074*[#   9]+0.074*[#  10]+0.074*[#  19]+0.074*[#  20]
          +0.004*[#  21]+0.004*[#  25]+0.002*[#   2]+0.002*[#  12]+0.002*[#  23]
          +0.002*[#  24]+0.002*[#  27]+0.002*[#  28]
    |psi|^2 = 0.993
==== e(  18) =     4.44163 eV ==== 
     psi = 0.192*[#   9]+0.192*[#  10]+0.192*[#  19]+0.192*[#  20]+0.058*[#   7]
          +0.058*[#   8]+0.058*[#  17]+0.058*[#  18]
    |psi|^2 = 1.000
==== e(  19) =     4.49576 eV ==== 
     psi = 0.135*[#   7]+0.135*[#   8]+0.135*[#  17]+0.135*[#  18]+0.115*[#   9]
          +0.115*[#  10]+0.115*[#  19]+0.115*[#  20]
    |psi|^2 = 1.000
==== e(  20) =     4.59564 eV ==== 
     psi = 0.182*[#   9]+0.182*[#  10]+0.182*[#  19]+0.182*[#  20]+0.100*[#   6]
          +0.100*[#  16]+0.010*[#   7]+0.010*[#   8]+0.010*[#  17]+0.010*[#  18]
          +0.009*[#  21]+0.009*[#  25]+0.003*[#   2]+0.003*[#  12]+0.001*[#  23]
          +0.001*[#  24]+0.001*[#  27]+0.001*[#  28]
    |psi|^2 = 0.995
==== e(  21) =     5.00045 eV ==== 
     psi = 0.087*[#   7]+0.087*[#   8]+0.087*[#  17]+0.087*[#  18]+0.072*[#   6]
          +0.072*[#  16]+0.066*[#   9]+0.066*[#  10]+0.066*[#  19]+0.066*[#  20]
          +0.036*[#  23]+0.036*[#  24]+0.036*[#  27]+0.036*[#  28]+0.030*[#   2]
          +0.030*[#  12]+0.011*[#  22]+0.011*[#  26]+0.007*[#  21]+0.007*[#  25]
          
    |psi|^2 = 0.997
==== e(  22) =     5.14413 eV ==== 
     psi = 0.114*[#   7]+0.114*[#   8]+0.114*[#  17]+0.114*[#  18]+0.070*[#  23]
          +0.070*[#  24]+0.070*[#  27]+0.070*[#  28]+0.049*[#  22]+0.049*[#  26]
          +0.048*[#   2]+0.048*[#  12]+0.007*[#   6]+0.007*[#  16]+0.007*[#  21]
          +0.007*[#  25]+0.006*[#   9]+0.006*[#  10]+0.006*[#  19]+0.006*[#  20]
          
    |psi|^2 = 0.983
==== e(  23) =     6.54363 eV ==== 
     psi = 0.280*[#  22]+0.280*[#  26]+0.088*[#   6]+0.088*[#  16]+0.026*[#   9]
          +0.026*[#  10]+0.026*[#  19]+0.026*[#  20]+0.019*[#  23]+0.019*[#  24]
          +0.019*[#  27]+0.019*[#  28]+0.014*[#   2]+0.014*[#  12]+0.004*[#  21]
          +0.004*[#  25]+0.003*[#   7]+0.003*[#   8]+0.003*[#  17]+0.003*[#  18]
          
    |psi|^2 = 0.967
==== e(  24) =     6.77105 eV ==== 
     psi = 0.182*[#  23]+0.182*[#  24]+0.182*[#  27]+0.182*[#  28]+0.033*[#   9]
          +0.033*[#  10]+0.033*[#  19]+0.033*[#  20]+0.027*[#   7]+0.027*[#   8]
          +0.027*[#  17]+0.027*[#  18]
    |psi|^2 = 0.969
==== e(  25) =     7.65864 eV ==== 
     psi = 0.299*[#  22]+0.299*[#  26]+0.082*[#   6]+0.082*[#  16]+0.029*[#  23]
          +0.029*[#  24]+0.029*[#  27]+0.029*[#  28]+0.011*[#   7]+0.011*[#   8]
          +0.011*[#  17]+0.011*[#  18]+0.010*[#   9]+0.010*[#  10]+0.010*[#  19]
          +0.010*[#  20]
    |psi|^2 = 0.969
==== e(  26) =     7.77807 eV ==== 
     psi = 0.186*[#  23]+0.186*[#  24]+0.186*[#  27]+0.186*[#  28]+0.040*[#   7]
          +0.040*[#   8]+0.040*[#  17]+0.040*[#  18]+0.019*[#   9]+0.019*[#  10]
          +0.019*[#  19]+0.019*[#  20]
    |psi|^2 = 0.978
==== e(  27) =    14.23830 eV ==== 
     psi = 0.205*[#   2]+0.205*[#  12]+0.023*[#  21]+0.023*[#  25]+0.017*[#  23]
          +0.017*[#  24]+0.017*[#  27]+0.017*[#  28]+0.001*[#  22]+0.001*[#  26]
          
    |psi|^2 = 0.534
==== e(  28) =    15.20729 eV ==== 
     psi = 0.033*[#   2]+0.033*[#  12]+0.006*[#  23]+0.006*[#  24]+0.006*[#  27]
          +0.006*[#  28]+0.005*[#  22]+0.005*[#  26]+0.003*[#  21]+0.003*[#  25]
          
    |psi|^2 = 0.111
==== e(  29) =    16.72931 eV ==== 
     psi = 0.142*[#   2]+0.142*[#  12]+0.025*[#  23]+0.025*[#  24]+0.025*[#  27]
          +0.025*[#  28]+0.023*[#  22]+0.023*[#  26]+0.006*[#  21]+0.006*[#  25]
          
    |psi|^2 = 0.449
==== e(  30) =    17.41014 eV ==== 
     psi = 0.302*[#   2]+0.302*[#  12]+0.044*[#  23]+0.044*[#  24]+0.044*[#  27]
          +0.044*[#  28]+0.022*[#  22]+0.022*[#  26]+0.003*[#   1]+0.003*[#  11]
          +0.002*[#  21]+0.002*[#  25]
    |psi|^2 = 0.834
==== e(  31) =    19.24554 eV ==== 
     psi = 0.026*[#   2]+0.026*[#  12]+0.020*[#  22]+0.020*[#  26]
    |psi|^2 = 0.096
==== e(  32) =    21.27392 eV ==== 
     psi = 0.002*[#  23]+0.002*[#  24]+0.002*[#  27]+0.002*[#  28]+0.002*[#   2]
          +0.002*[#  12]+0.002*[#  22]+0.002*[#  26]
    |psi|^2 = 0.018
==== e(  33) =    22.10298 eV ==== 
     psi = 0.003*[#  23]+0.003*[#  24]+0.003*[#  27]+0.003*[#  28]
    |psi|^2 = 0.014
==== e(  34) =    22.85435 eV ==== 
     psi = 0.007*[#  23]+0.007*[#  24]+0.007*[#  27]+0.007*[#  28]
    |psi|^2 = 0.031
==== e(  35) =    23.45305 eV ==== 
     psi = 0.010*[#   2]+0.010*[#  12]+0.004*[#  23]+0.004*[#  24]+0.004*[#  27]
          +0.004*[#  28]
    |psi|^2 = 0.039
==== e(  36) =    27.16030 eV ==== 
     psi = 0.003*[#   2]+0.003*[#  12]+0.003*[#  22]+0.003*[#  26]
    |psi|^2 = 0.015
==== e(  37) =    29.71925 eV ==== 
     psi = 0.002*[#  22]+0.002*[#  26]+0.001*[#   2]+0.001*[#  12]
    |psi|^2 = 0.010
==== e(  38) =    29.76977 eV ==== 

    |psi|^2 = 0.004
==== e(  39) =    29.94715 eV ==== 
     psi = 0.002*[#  23]+0.002*[#  24]+0.002*[#  27]+0.002*[#  28]
    |psi|^2 = 0.007
==== e(  40) =    33.40387 eV ==== 

    |psi|^2 = 0.004
==== e(  41) =    34.16883 eV ==== 

    |psi|^2 = 0.001
==== e(  42) =    35.07451 eV ==== 

    |psi|^2 = 0.001
==== e(  43) =    35.29217 eV ==== 

    |psi|^2 = 0.002
==== e(  44) =    36.02515 eV ==== 

    |psi|^2 = 0.000
==== e(  45) =    38.09749 eV ==== 

    |psi|^2 = 0.002
==== e(  46) =    38.31720 eV ==== 

    |psi|^2 = 0.002
==== e(  47) =    40.13042 eV ==== 

    |psi|^2 = 0.000
==== e(  48) =    41.62416 eV ==== 

    |psi|^2 = 0.001
==== e(  49) =    41.73413 eV ==== 

    |psi|^2 = 0.001
==== e(  50) =    41.92913 eV ==== 

    |psi|^2 = 0.001

 k =  -0.5000000000 -0.8660254038  0.2583072432
==== e(   1) =  -114.31675 eV ==== 
     psi = 0.496*[#   1]+0.496*[#  11]+0.001*[#  23]+0.001*[#  24]+0.001*[#  27]
          +0.001*[#  28]
    |psi|^2 = 1.000
==== e(   2) =  -114.31660 eV ==== 
     psi = 0.497*[#   1]+0.497*[#  11]+0.001*[#  23]+0.001*[#  24]+0.001*[#  27]
          +0.001*[#  28]
    |psi|^2 = 1.000
==== e(   3) =   -68.65395 eV ==== 
     psi = 0.493*[#   3]+0.493*[#  13]+0.003*[#   4]+0.003*[#   5]+0.003*[#  14]
          +0.003*[#  15]
    |psi|^2 = 1.000
==== e(   4) =   -68.65316 eV ==== 
     psi = 0.490*[#   3]+0.490*[#  13]+0.005*[#   4]+0.005*[#   5]+0.005*[#  14]
          +0.005*[#  15]
    |psi|^2 = 1.000
==== e(   5) =   -68.64865 eV ==== 
     psi = 0.245*[#   4]+0.245*[#   5]+0.245*[#  14]+0.245*[#  15]+0.010*[#   3]
          +0.010*[#  13]
    |psi|^2 = 1.000
==== e(   6) =   -68.64831 eV ==== 
     psi = 0.247*[#   4]+0.247*[#   5]+0.247*[#  14]+0.247*[#  15]+0.006*[#   3]
          +0.006*[#  13]
    |psi|^2 = 1.000
==== e(   7) =   -68.64791 eV ==== 
     psi = 0.250*[#   4]+0.250*[#   5]+0.250*[#  14]+0.250*[#  15]
    |psi|^2 = 1.000
==== e(   8) =   -68.64747 eV ==== 
     psi = 0.250*[#   4]+0.250*[#   5]+0.250*[#  14]+0.250*[#  15]
    |psi|^2 = 1.000
==== e(   9) =    -8.42651 eV ==== 
     psi = 0.460*[#  21]+0.460*[#  25]+0.023*[#   2]+0.023*[#  12]+0.004*[#   9]
          +0.004*[#  10]+0.004*[#  19]+0.004*[#  20]+0.002*[#   6]+0.002*[#  16]
          +0.002*[#   7]+0.002*[#   8]+0.002*[#  17]+0.002*[#  18]
    |psi|^2 = 0.995
==== e(  10) =    -8.36700 eV ==== 
     psi = 0.470*[#  21]+0.470*[#  25]+0.011*[#   2]+0.011*[#  12]+0.004*[#   9]
          +0.004*[#  10]+0.004*[#  19]+0.004*[#  20]+0.004*[#   6]+0.004*[#  16]
          +0.002*[#   7]+0.002*[#   8]+0.002*[#  17]+0.002*[#  18]
    |psi|^2 = 0.994
==== e(  11) =     2.63833 eV ==== 
     psi = 0.074*[#  23]+0.074*[#  24]+0.074*[#  27]+0.074*[#  28]+0.069*[#  22]
          +0.069*[#  26]+0.060*[#   7]+0.060*[#   8]+0.060*[#  17]+0.060*[#  18]
          +0.056*[#   2]+0.056*[#  12]+0.040*[#   6]+0.040*[#  16]+0.031*[#   9]
          +0.031*[#  10]+0.031*[#  19]+0.031*[#  20]+0.002*[#  21]+0.002*[#  25]
          
    |psi|^2 = 0.994
==== e(  12) =     2.66099 eV ==== 
     psi = 0.080*[#  23]+0.080*[#  24]+0.080*[#  27]+0.080*[#  28]+0.073*[#  22]
          +0.073*[#  26]+0.070*[#   2]+0.070*[#  12]+0.047*[#   7]+0.047*[#   8]
          +0.047*[#  17]+0.047*[#  18]+0.038*[#   9]+0.038*[#  10]+0.038*[#  19]
          +0.038*[#  20]+0.023*[#   6]+0.023*[#  16]+0.001*[#  21]+0.001*[#  25]
          
    |psi|^2 = 0.993
==== e(  13) =     3.48743 eV ==== 
     psi = 0.139*[#   7]+0.139*[#   8]+0.139*[#  17]+0.139*[#  18]+0.059*[#  23]
          +0.059*[#  24]+0.059*[#  27]+0.059*[#  28]+0.051*[#   9]+0.051*[#  10]
          +0.051*[#  19]+0.051*[#  20]
    |psi|^2 = 0.998
==== e(  14) =     3.61194 eV ==== 
     psi = 0.260*[#   6]+0.260*[#  16]+0.074*[#  22]+0.074*[#  26]+0.046*[#  23]
          +0.046*[#  24]+0.046*[#  27]+0.046*[#  28]+0.022*[#   9]+0.022*[#  10]
          +0.022*[#  19]+0.022*[#  20]+0.008*[#   7]+0.008*[#   8]+0.008*[#  17]
          +0.008*[#  18]+0.005*[#   2]+0.005*[#  12]+0.002*[#  21]+0.002*[#  25]
          
    |psi|^2 = 0.986
==== e(  15) =     3.62524 eV ==== 
     psi = 0.118*[#   7]+0.118*[#   8]+0.118*[#  17]+0.118*[#  18]+0.071*[#   9]
          +0.071*[#  10]+0.071*[#  19]+0.071*[#  20]+0.060*[#  23]+0.060*[#  24]
          +0.060*[#  27]+0.060*[#  28]
    |psi|^2 = 0.997
==== e(  16) =     3.62760 eV ==== 
     psi = 0.262*[#   6]+0.262*[#  16]+0.065*[#  22]+0.065*[#  26]+0.038*[#  23]
          +0.038*[#  24]+0.038*[#  27]+0.038*[#  28]+0.022*[#   7]+0.022*[#   8]
          +0.022*[#  17]+0.022*[#  18]+0.020*[#   9]+0.020*[#  10]+0.020*[#  19]
          +0.020*[#  20]+0.008*[#   2]+0.008*[#  12]+0.001*[#  21]+0.001*[#  25]
          
    |psi|^2 = 0.991
==== e(  17) =     4.45264 eV ==== 
     psi = 0.178*[#   9]+0.178*[#  10]+0.178*[#  19]+0.178*[#  20]+0.072*[#   7]
          +0.072*[#   8]+0.072*[#  17]+0.072*[#  18]
    |psi|^2 = 1.000
==== e(  18) =     4.47051 eV ==== 
     psi = 0.152*[#   9]+0.152*[#  10]+0.152*[#  19]+0.152*[#  20]+0.097*[#   7]
          +0.097*[#   8]+0.097*[#  17]+0.097*[#  18]
    |psi|^2 = 1.000
==== e(  19) =     4.51484 eV ==== 
     psi = 0.130*[#   9]+0.130*[#  10]+0.130*[#  19]+0.130*[#  20]+0.082*[#   6]
          +0.082*[#  16]+0.071*[#   7]+0.071*[#   8]+0.071*[#  17]+0.071*[#  18]
          +0.009*[#  21]+0.009*[#  25]
    |psi|^2 = 0.990
==== e(  20) =     4.57316 eV ==== 
     psi = 0.167*[#   9]+0.167*[#  10]+0.167*[#  19]+0.167*[#  20]+0.089*[#   6]
          +0.089*[#  16]+0.030*[#   7]+0.030*[#   8]+0.030*[#  17]+0.030*[#  18]
          +0.011*[#  21]+0.011*[#  25]
    |psi|^2 = 0.992
==== e(  21) =     5.00131 eV ==== 
     psi = 0.121*[#   7]+0.121*[#   8]+0.121*[#  17]+0.121*[#  18]+0.043*[#  23]
          +0.043*[#  24]+0.043*[#  27]+0.043*[#  28]+0.038*[#   9]+0.038*[#  10]
          +0.038*[#  19]+0.038*[#  20]+0.038*[#   2]+0.038*[#  12]+0.038*[#   6]
          +0.038*[#  16]+0.016*[#  22]+0.016*[#  26]+0.001*[#  21]+0.001*[#  25]
          
    |psi|^2 = 0.997
==== e(  22) =     5.05719 eV ==== 
     psi = 0.131*[#   7]+0.131*[#   8]+0.131*[#  17]+0.131*[#  18]+0.056*[#  23]
          +0.056*[#  24]+0.056*[#  27]+0.056*[#  28]+0.044*[#   2]+0.044*[#  12]
          +0.029*[#  22]+0.029*[#  26]+0.017*[#   6]+0.017*[#  16]+0.015*[#   9]
          +0.015*[#  10]+0.015*[#  19]+0.015*[#  20]+0.002*[#  21]+0.002*[#  25]
          
    |psi|^2 = 0.991
==== e(  23) =     7.11018 eV ==== 
     psi = 0.182*[#  23]+0.182*[#  24]+0.182*[#  27]+0.182*[#  28]+0.035*[#   7]
          +0.035*[#   8]+0.035*[#  17]+0.035*[#  18]+0.026*[#   9]+0.026*[#  10]
          +0.026*[#  19]+0.026*[#  20]
    |psi|^2 = 0.971
==== e(  24) =     7.17098 eV ==== 
     psi = 0.285*[#  22]+0.285*[#  26]+0.093*[#   6]+0.093*[#  16]+0.031*[#  23]
          +0.031*[#  24]+0.031*[#  27]+0.031*[#  28]+0.017*[#   9]+0.017*[#  10]
          +0.017*[#  19]+0.017*[#  20]+0.009*[#   2]+0.009*[#  12]+0.003*[#  21]
          +0.003*[#  25]
    |psi|^2 = 0.973
==== e(  25) =     7.47526 eV ==== 
     psi = 0.183*[#  23]+0.183*[#  24]+0.183*[#  27]+0.183*[#  28]+0.039*[#   7]
          +0.039*[#   8]+0.039*[#  17]+0.039*[#  18]+0.021*[#   9]+0.021*[#  10]
          +0.021*[#  19]+0.021*[#  20]
    |psi|^2 = 0.974
==== e(  26) =     7.59611 eV ==== 
     psi = 0.294*[#  22]+0.294*[#  26]+0.088*[#   6]+0.088*[#  16]+0.035*[#  23]
          +0.035*[#  24]+0.035*[#  27]+0.035*[#  28]+0.012*[#   9]+0.012*[#  10]
          +0.012*[#  19]+0.012*[#  20]+0.004*[#   7]+0.004*[#   8]+0.004*[#  17]
          +0.004*[#  18]+0.003*[#   2]+0.003*[#  12]
    |psi|^2 = 0.978
==== e(  27) =    14.25686 eV ==== 
     psi = 0.127*[#   2]+0.127*[#  12]+0.014*[#  21]+0.014*[#  25]+0.005*[#  23]
          +0.005*[#  24]+0.005*[#  27]+0.005*[#  28]+0.005*[#  22]+0.005*[#  26]
          
    |psi|^2 = 0.323
==== e(  28) =    14.67934 eV ==== 
     psi = 0.066*[#   2]+0.066*[#  12]+0.008*[#  22]+0.008*[#  26]+0.007*[#  21]
          +0.007*[#  25]+0.003*[#  23]+0.003*[#  24]+0.003*[#  27]+0.003*[#  28]
          
    |psi|^2 = 0.182
==== e(  29) =    17.08731 eV ==== 
     psi = 0.223*[#   2]+0.223*[#  12]+0.036*[#  23]+0.036*[#  24]+0.036*[#  27]
          +0.036*[#  28]+0.026*[#  22]+0.026*[#  26]+0.007*[#  21]+0.007*[#  25]
          +0.002*[#   1]+0.002*[#  11]
    |psi|^2 = 0.662
==== e(  30) =    17.32885 eV ==== 
     psi = 0.279*[#   2]+0.279*[#  12]+0.042*[#  23]+0.042*[#  24]+0.042*[#  27]
          +0.042*[#  28]+0.027*[#  22]+0.027*[#  26]+0.005*[#  21]+0.005*[#  25]
          +0.002*[#   1]+0.002*[#  11]
    |psi|^2 = 0.795
==== e(  31) =    19.62139 eV ==== 
     psi = 0.014*[#   2]+0.014*[#  12]+0.009*[#  22]+0.009*[#  26]
    |psi|^2 = 0.049
==== e(  32) =    20.50714 eV ==== 
     psi = 0.005*[#   2]+0.005*[#  12]+0.004*[#  22]+0.004*[#  26]
    |psi|^2 = 0.020
==== e(  33) =    22.32975 eV ==== 
     psi = 0.005*[#  23]+0.005*[#  24]+0.005*[#  27]+0.005*[#  28]
    |psi|^2 = 0.021
==== e(  34) =    22.60461 eV ==== 
     psi = 0.006*[#  23]+0.006*[#  24]+0.006*[#  27]+0.006*[#  28]
    |psi|^2 = 0.027
==== e(  35) =    24.09438 eV ==== 
     psi = 0.007*[#   2]+0.007*[#  12]+0.003*[#  23]+0.003*[#  24]+0.003*[#  27]
          +0.003*[#  28]+0.001*[#  22]+0.001*[#  26]
    |psi|^2 = 0.032
==== e(  36) =    25.68893 eV ==== 
     psi = 0.004*[#   2]+0.004*[#  12]+0.002*[#  22]+0.002*[#  26]+0.002*[#  23]
          +0.002*[#  24]+0.002*[#  27]+0.002*[#  28]
    |psi|^2 = 0.020
==== e(  37) =    30.08656 eV ==== 
     psi = 0.002*[#  22]+0.002*[#  26]
    |psi|^2 = 0.006
==== e(  38) =    30.56937 eV ==== 
     psi = 0.003*[#  22]+0.003*[#  26]
    |psi|^2 = 0.009
==== e(  39) =    31.01128 eV ==== 
     psi = 0.001*[#  23]+0.001*[#  24]+0.001*[#  27]+0.001*[#  28]
    |psi|^2 = 0.004
==== e(  40) =    32.49079 eV ==== 

    |psi|^2 = 0.003
==== e(  41) =    33.68600 eV ==== 

    |psi|^2 = 0.003
==== e(  42) =    34.69586 eV ==== 

    |psi|^2 = 0.002
==== e(  43) =    35.19617 eV ==== 

    |psi|^2 = 0.000
==== e(  44) =    35.55129 eV ==== 

    |psi|^2 = 0.000
==== e(  45) =    38.83686 eV ==== 

    |psi|^2 = 0.001
==== e(  46) =    39.32180 eV ==== 

    |psi|^2 = 0.001
==== e(  47) =    40.83437 eV ==== 

    |psi|^2 = 0.001
==== e(  48) =    41.50881 eV ==== 

    |psi|^2 = 0.002
==== e(  49) =    42.01844 eV ==== 

    |psi|^2 = 0.001
==== e(  50) =    42.03155 eV ==== 

    |psi|^2 = 0.001

Lowdin Charges: 

     Atom #   1: total charge =  18.5954, s =  2.6208, 
     Atom #   1: total charge =  18.5954, p =  5.9996, pz=  1.9999, px=  1.9999, py=  1.9999, 
     Atom #   1: total charge =  18.5954, d =  9.9750, dz2=  1.9927, dxz=  1.9965, dyz=  1.9965, dx2-y2=  1.9947, dxy=  1.9947, 
     Atom #   2: total charge =  18.5954, s =  2.6208, 
     Atom #   2: total charge =  18.5954, p =  5.9996, pz=  1.9999, px=  1.9999, py=  1.9999, 
     Atom #   2: total charge =  18.5954, d =  9.9750, dz2=  1.9927, dxz=  1.9965, dyz=  1.9965, dx2-y2=  1.9947, dxy=  1.9947, 
     Atom #   3: total charge =   7.2105, s =  1.8691, 
     Atom #   3: total charge =   7.2105, p =  5.3414, pz=  1.7807, px=  1.7803, py=  1.7803, 
     Atom #   3: total charge =   7.2105, d =  0.0000, dz2=  0.0000, dxz=  0.0000, dyz=  0.0000, dx2-y2=  0.0000, dxy=  0.0000, 
     Atom #   4: total charge =   7.2105, s =  1.8691, 
     Atom #   4: total charge =   7.2105, p =  5.3414, pz=  1.7807, px=  1.7803, py=  1.7803, 
     Atom #   4: total charge =   7.2105, d =  0.0000, dz2=  0.0000, dxz=  0.0000, dyz=  0.0000, dx2-y2=  0.0000, dxy=  0.0000, 
     Spilling Parameter:   0.0075

     PROJWFC      :      3.11s CPU     16.01s WALL


   This run was terminated on:  20:59:28  26Mar2024            

=------------------------------------------------------------------------------=
   JOB DONE.
=------------------------------------------------------------------------------=
