# 0
-114.624 3.28e-09
-114.614 6.58e-09
-114.604 1.292e-08
-114.594 2.5e-08
-114.584 4.7e-08
-114.574 8.72e-08
-114.564 1.584e-07
-114.554 2.82e-07
-114.544 4.92e-07
-114.534 8.44e-07
-114.524 1.414e-06
-114.514 2.32e-06
-114.504 3.74e-06
-114.494 5.92e-06
-114.484 9.16e-06
-114.474 1.39e-05
-114.464 2.06e-05
-114.454 3e-05
-114.444 4.3e-05
-114.434 6e-05
-114.424 8.22e-05
-114.414 0.0001102
-114.404 0.0001446
-114.394 0.000186
-114.384 0.000234
-114.374 0.000288
-114.364 0.000348
-114.354 0.00041
-114.344 0.000474
-114.334 0.000534
-114.324 0.000588
-114.314 0.000632
-114.304 0.000664
-114.294 0.00068
-114.284 0.00068
-114.274 0.00066
-114.264 0.000622
-114.254 0.00057
-114.244 0.000502
-114.234 0.000428
-114.224 0.000346
-114.214 0.000264
-114.204 0.000187
-114.194 0.000116
-114.184 5.48e-05
-114.174 4.68e-06
-114.164 -3.36e-05
-114.154 -6.04e-05
-114.144 -7.68e-05
-114.134 -8.42e-05
-114.124 -8.48e-05
-114.114 -8e-05
-114.104 -7.22e-05
-114.094 -6.24e-05
-114.084 -5.2e-05
-114.074 -4.22e-05
-114.064 -3.3e-05
-114.054 -2.52e-05
-114.044 -1.878e-05
-114.034 -1.362e-05
-114.024 -9.64e-06
-114.014 -6.66e-06
-114.004 -4.5e-06
-113.994 -2.98e-06
-113.984 -1.92e-06
-113.974 -1.212e-06
-113.964 -7.5e-07
-113.954 -4.54e-07
-113.944 -2.68e-07
-113.934 -1.556e-07
-113.924 -8.84e-08
-113.914 -4.92e-08
-113.904 -2.68e-08
-113.894 -1.428e-08
-113.884 -7.46e-09
-113.874 -3.82e-09
-113.864 -1.918e-09
-113.854 -9.44e-10
-113.844 -4.54e-10
-113.834 -2.14e-10
-113.824 -9.94e-11
-113.814 -4.52e-11
-113.804 -2e-11
-113.794 -8.74e-12
-113.784 0
-113.774 0
-113.764 0
-113.754 0
-113.744 0
-113.734 0
-113.724 0
-113.714 0
-113.704 0
-113.694 0
-113.684 0
-113.674 0
-113.664 0
-113.654 0
-113.644 0
-113.634 0
-113.624 0
-113.614 0
-113.604 0
-113.594 0
-113.584 0
-113.574 0
-113.564 0
-113.554 0
-113.544 0
-113.534 0
-113.524 0
-113.514 0
-113.504 0
-113.494 0
-113.484 0
-113.474 0
-113.464 0
-113.454 0
-113.444 0
-113.434 0
-113.424 0
-113.414 0
-113.404 0
-113.394 0
-113.384 0
-113.374 0
-113.364 0
-113.354 0
-113.344 0
-113.334 0
-113.324 0
-113.314 0
-113.304 0
-113.294 0
-113.284 0
-113.274 0
-113.264 0
-113.254 0
-113.244 0
-113.234 0
-113.224 0
-113.214 0
-113.204 0
-113.194 0
-113.184 0
-113.174 0
-113.164 0
-113.154 0
-113.144 0
-113.134 0
-113.124 0
-113.114 0
-113.104 0
-113.094 0
-113.084 0
-113.074 0
-113.064 0
-113.054 0
-113.044 0
-113.034 0
-113.024 0
-113.014 0
-113.004 0
-112.994 0
-112.984 0
-112.974 0
-112.964 0
-112.954 0
-112.944 0
-112.934 0
-112.924 0
-112.914 0
-112.904 0
-112.894 0
-112.884 0
-112.874 0
-112.864 0
-112.854 0
-112.844 0
-112.834 0
-112.824 0
-112.814 0
-112.804 0
-112.794 0
-112.784 0
-112.774 0
-112.764 0
-112.754 0
-112.744 0
-112.734 0
-112.724 0
-112.714 0
-112.704 0
-112.694 0
-112.684 0
-112.674 0
-112.664 0
-112.654 0
-112.644 0
-112.634 0
-112.624 0
-112.614 0
-112.604 0
-112.594 0
-112.584 0
-112.574 0
-112.564 0
-112.554 0
-112.544 0
-112.534 0
-112.524 0
-112.514 0
-112.504 0
-112.494 0
-112.484 0
-112.474 0
-112.464 0
-112.454 0
-112.444 0
-112.434 0
-112.424 0
-112.414 0
-112.404 0
-112.394 0
-112.384 0
-112.374 0
-112.364 0
-112.354 0
-112.344 0
-112.334 0
-112.324 0
-112.314 0
-112.304 0
-112.294 0
-112.284 0
-112.274 0
-112.264 0
-112.254 0
-112.244 0
-112.234 0
-112.224 0
-112.214 0
-112.204 0
-112.194 0
-112.184 0
-112.174 0
-112.164 0
-112.154 0
-112.144 0
-112.134 0
-112.124 0
-112.114 0
-112.104 0
-112.094 0
-112.084 0
-112.074 0
-112.064 0
-112.054 0
-112.044 0
-112.034 0
-112.024 0
-112.014 0
-112.004 0
-111.994 0
-111.984 0
-111.974 0
-111.964 0
-111.954 0
-111.944 0
-111.934 0
-111.924 0
-111.914 0
-111.904 0
-111.894 0
-111.884 0
-111.874 0
-111.864 0
-111.854 0
-111.844 0
-111.834 0
-111.824 0
-111.814 0
-111.804 0
-111.794 0
-111.784 0
-111.774 0
-111.764 0
-111.754 0
-111.744 0
-111.734 0
-111.724 0
-111.714 0
-111.704 0
-111.694 0
-111.684 0
-111.674 0
-111.664 0
-111.654 0
-111.644 0
-111.634 0
-111.624 0
-111.614 0
-111.604 0
-111.594 0
-111.584 0
-111.574 0
-111.564 0
-111.554 0
-111.544 0
-111.534 0
-111.524 0
-111.514 0
-111.504 0
-111.494 0
-111.484 0
-111.474 0
-111.464 0
-111.454 0
-111.444 0
-111.434 0
-111.424 0
-111.414 0
-111.404 0
-111.394 0
-111.384 0
-111.374 0
-111.364 0
-111.354 0
-111.344 0
-111.334 0
-111.324 0
-111.314 0
-111.304 0
-111.294 0
-111.284 0
-111.274 0
-111.264 0
-111.254 0
-111.244 0
-111.234 0
-111.224 0
-111.214 0
-111.204 0
-111.194 0
-111.184 0
-111.174 0
-111.164 0
-111.154 0
-111.144 0
-111.134 0
-111.124 0
-111.114 0
-111.104 0
-111.094 0
-111.084 0
-111.074 0
-111.064 0
-111.054 0
-111.044 0
-111.034 0
-111.024 0
-111.014 0
-111.004 0
-110.994 0
-110.984 0
-110.974 0
-110.964 0
-110.954 0
-110.944 0
-110.934 0
-110.924 0
-110.914 0
-110.904 0
-110.894 0
-110.884 0
-110.874 0
-110.864 0
-110.854 0
-110.844 0
-110.834 0
-110.824 0
-110.814 0
-110.804 0
-110.794 0
-110.784 0
-110.774 0
-110.764 0
-110.754 0
-110.744 0
-110.734 0
-110.724 0
-110.714 0
-110.704 0
-110.694 0
-110.684 0
-110.674 0
-110.664 0
-110.654 0
-110.644 0
-110.634 0
-110.624 0
-110.614 0
-110.604 0
-110.594 0
-110.584 0
-110.574 0
-110.564 0
-110.554 0
-110.544 0
-110.534 0
-110.524 0
-110.514 0
-110.504 0
-110.494 0
-110.484 0
-110.474 0
-110.464 0
-110.454 0
-110.444 0
-110.434 0
-110.424 0
-110.414 0
-110.404 0
-110.394 0
-110.384 0
-110.374 0
-110.364 0
-110.354 0
-110.344 0
-110.334 0
-110.324 0
-110.314 0
-110.304 0
-110.294 0
-110.284 0
-110.274 0
-110.264 0
-110.254 0
-110.244 0
-110.234 0
-110.224 0
-110.214 0
-110.204 0
-110.194 0
-110.184 0
-110.174 0
-110.164 0
-110.154 0
-110.144 0
-110.134 0
-110.124 0
-110.114 0
-110.104 0
-110.094 0
-110.084 0
-110.074 0
-110.064 0
-110.054 0
-110.044 0
-110.034 0
-110.024 0
-110.014 0
-110.004 0
-109.994 0
-109.984 0
-109.974 0
-109.964 0
-109.954 0
-109.944 0
-109.934 0
-109.924 0
-109.914 0
-109.904 0
-109.894 0
-109.884 0
-109.874 0
-109.864 0
-109.854 0
-109.844 0
-109.834 0
-109.824 0
-109.814 0
-109.804 0
-109.794 0
-109.784 0
-109.774 0
-109.764 0
-109.754 0
-109.744 0
-109.734 0
-109.724 0
-109.714 0
-109.704 0
-109.694 0
-109.684 0
-109.674 0
-109.664 0
-109.654 0
-109.644 0
-109.634 0
-109.624 0
-109.614 0
-109.604 0
-109.594 0
-109.584 0
-109.574 0
-109.564 0
-109.554 0
-109.544 0
-109.534 0
-109.524 0
-109.514 0
-109.504 0
-109.494 0
-109.484 0
-109.474 0
-109.464 0
-109.454 0
-109.444 0
-109.434 0
-109.424 0
-109.414 0
-109.404 0
-109.394 0
-109.384 0
-109.374 0
-109.364 0
-109.354 0
-109.344 0
-109.334 0
-109.324 0
-109.314 0
-109.304 0
-109.294 0
-109.284 0
-109.274 0
-109.264 0
-109.254 0
-109.244 0
-109.234 0
-109.224 0
-109.214 0
-109.204 0
-109.194 0
-109.184 0
-109.174 0
-109.164 0
-109.154 0
-109.144 0
-109.134 0
-109.124 0
-109.114 0
-109.104 0
-109.094 0
-109.084 0
-109.074 0
-109.064 0
-109.054 0
-109.044 0
-109.034 0
-109.024 0
-109.014 0
-109.004 0
-108.994 0
-108.984 0
-108.974 0
-108.964 0
-108.954 0
-108.944 0
-108.934 0
-108.924 0
-108.914 0
-108.904 0
-108.894 0
-108.884 0
-108.874 0
-108.864 0
-108.854 0
-108.844 0
-108.834 0
-108.824 0
-108.814 0
-108.804 0
-108.794 0
-108.784 0
-108.774 0
-108.764 0
-108.754 0
-108.744 0
-108.734 0
-108.724 0
-108.714 0
-108.704 0
-108.694 0
-108.684 0
-108.674 0
-108.664 0
-108.654 0
-108.644 0
-108.634 0
-108.624 0
-108.614 0
-108.604 0
-108.594 0
-108.584 0
-108.574 0
-108.564 0
-108.554 0
-108.544 0
-108.534 0
-108.524 0
-108.514 0
-108.504 0
-108.494 0
-108.484 0
-108.474 0
-108.464 0
-108.454 0
-108.444 0
-108.434 0
-108.424 0
-108.414 0
-108.404 0
-108.394 0
-108.384 0
-108.374 0
-108.364 0
-108.354 0
-108.344 0
-108.334 0
-108.324 0
-108.314 0
-108.304 0
-108.294 0
-108.284 0
-108.274 0
-108.264 0
-108.254 0
-108.244 0
-108.234 0
-108.224 0
-108.214 0
-108.204 0
-108.194 0
-108.184 0
-108.174 0
-108.164 0
-108.154 0
-108.144 0
-108.134 0
-108.124 0
-108.114 0
-108.104 0
-108.094 0
-108.084 0
-108.074 0
-108.064 0
-108.054 0
-108.044 0
-108.034 0
-108.024 0
-108.014 0
-108.004 0
-107.994 0
-107.984 0
-107.974 0
-107.964 0
-107.954 0
-107.944 0
-107.934 0
-107.924 0
-107.914 0
-107.904 0
-107.894 0
-107.884 0
-107.874 0
-107.864 0
-107.854 0
-107.844 0
-107.834 0
-107.824 0
-107.814 0
-107.804 0
-107.794 0
-107.784 0
-107.774 0
-107.764 0
-107.754 0
-107.744 0
-107.734 0
-107.724 0
-107.714 0
-107.704 0
-107.694 0
-107.684 0
-107.674 0
-107.664 0
-107.654 0
-107.644 0
-107.634 0
-107.624 0
-107.614 0
-107.604 0
-107.594 0
-107.584 0
-107.574 0
-107.564 0
-107.554 0
-107.544 0
-107.534 0
-107.524 0
-107.514 0
-107.504 0
-107.494 0
-107.484 0
-107.474 0
-107.464 0
-107.454 0
-107.444 0
-107.434 0
-107.424 0
-107.414 0
-107.404 0
-107.394 0
-107.384 0
-107.374 0
-107.364 0
-107.354 0
-107.344 0
-107.334 0
-107.324 0
-107.314 0
-107.304 0
-107.294 0
-107.284 0
-107.274 0
-107.264 0
-107.254 0
-107.244 0
-107.234 0
-107.224 0
-107.214 0
-107.204 0
-107.194 0
-107.184 0
-107.174 0
-107.164 0
-107.154 0
-107.144 0
-107.134 0
-107.124 0
-107.114 0
-107.104 0
-107.094 0
-107.084 0
-107.074 0
-107.064 0
-107.054 0
-107.044 0
-107.034 0
-107.024 0
-107.014 0
-107.004 0
-106.994 0
-106.984 0
-106.974 0
-106.964 0
-106.954 0
-106.944 0
-106.934 0
-106.924 0
-106.914 0
-106.904 0
-106.894 0
-106.884 0
-106.874 0
-106.864 0
-106.854 0
-106.844 0
-106.834 0
-106.824 0
-106.814 0
-106.804 0
-106.794 0
-106.784 0
-106.774 0
-106.764 0
-106.754 0
-106.744 0
-106.734 0
-106.724 0
-106.714 0
-106.704 0
-106.694 0
-106.684 0
-106.674 0
-106.664 0
-106.654 0
-106.644 0
-106.634 0
-106.624 0
-106.614 0
-106.604 0
-106.594 0
-106.584 0
-106.574 0
-106.564 0
-106.554 0
-106.544 0
-106.534 0
-106.524 0
-106.514 0
-106.504 0
-106.494 0
-106.484 0
-106.474 0
-106.464 0
-106.454 0
-106.444 0
-106.434 0
-106.424 0
-106.414 0
-106.404 0
-106.394 0
-106.384 0
-106.374 0
-106.364 0
-106.354 0
-106.344 0
-106.334 0
-106.324 0
-106.314 0
-106.304 0
-106.294 0
-106.284 0
-106.274 0
-106.264 0
-106.254 0
-106.244 0
-106.234 0
-106.224 0
-106.214 0
-106.204 0
-106.194 0
-106.184 0
-106.174 0
-106.164 0
-106.154 0
-106.144 0
-106.134 0
-106.124 0
-106.114 0
-106.104 0
-106.094 0
-106.084 0
-106.074 0
-106.064 0
-106.054 0
-106.044 0
-106.034 0
-106.024 0
-106.014 0
-106.004 0
-105.994 0
-105.984 0
-105.974 0
-105.964 0
-105.954 0
-105.944 0
-105.934 0
-105.924 0
-105.914 0
-105.904 0
-105.894 0
-105.884 0
-105.874 0
-105.864 0
-105.854 0
-105.844 0
-105.834 0
-105.824 0
-105.814 0
-105.804 0
-105.794 0
-105.784 0
-105.774 0
-105.764 0
-105.754 0
-105.744 0
-105.734 0
-105.724 0
-105.714 0
-105.704 0
-105.694 0
-105.684 0
-105.674 0
-105.664 0
-105.654 0
-105.644 0
-105.634 0
-105.624 0
-105.614 0
-105.604 0
-105.594 0
-105.584 0
-105.574 0
-105.564 0
-105.554 0
-105.544 0
-105.534 0
-105.524 0
-105.514 0
-105.504 0
-105.494 0
-105.484 0
-105.474 0
-105.464 0
-105.454 0
-105.444 0
-105.434 0
-105.424 0
-105.414 0
-105.404 0
-105.394 0
-105.384 0
-105.374 0
-105.364 0
-105.354 0
-105.344 0
-105.334 0
-105.324 0
-105.314 0
-105.304 0
-105.294 0
-105.284 0
-105.274 0
-105.264 0
-105.254 0
-105.244 0
-105.234 0
-105.224 0
-105.214 0
-105.204 0
-105.194 0
-105.184 0
-105.174 0
-105.164 0
-105.154 0
-105.144 0
-105.134 0
-105.124 0
-105.114 0
-105.104 0
-105.094 0
-105.084 0
-105.074 0
-105.064 0
-105.054 0
-105.044 0
-105.034 0
-105.024 0
-105.014 0
-105.004 0
-104.994 0
-104.984 0
-104.974 0
-104.964 0
-104.954 0
-104.944 0
-104.934 0
-104.924 0
-104.914 0
-104.904 0
-104.894 0
-104.884 0
-104.874 0
-104.864 0
-104.854 0
-104.844 0
-104.834 0
-104.824 0
-104.814 0
-104.804 0
-104.794 0
-104.784 0
-104.774 0
-104.764 0
-104.754 0
-104.744 0
-104.734 0
-104.724 0
-104.714 0
-104.704 0
-104.694 0
-104.684 0
-104.674 0
-104.664 0
-104.654 0
-104.644 0
-104.634 0
-104.624 0
-104.614 0
-104.604 0
-104.594 0
-104.584 0
-104.574 0
-104.564 0
-104.554 0
-104.544 0
-104.534 0
-104.524 0
-104.514 0
-104.504 0
-104.494 0
-104.484 0
-104.474 0
-104.464 0
-104.454 0
-104.444 0
-104.434 0
-104.424 0
-104.414 0
-104.404 0
-104.394 0
-104.384 0
-104.374 0
-104.364 0
-104.354 0
-104.344 0
-104.334 0
-104.324 0
-104.314 0
-104.304 0
-104.294 0
-104.284 0
-104.274 0
-104.264 0
-104.254 0
-104.244 0
-104.234 0
-104.224 0
-104.214 0
-104.204 0
-104.194 0
-104.184 0
-104.174 0
-104.164 0
-104.154 0
-104.144 0
-104.134 0
-104.124 0
-104.114 0
-104.104 0
-104.094 0
-104.084 0
-104.074 0
-104.064 0
-104.054 0
-104.044 0
-104.034 0
-104.024 0
-104.014 0
-104.004 0
-103.994 0
-103.984 0
-103.974 0
-103.964 0
-103.954 0
-103.944 0
-103.934 0
-103.924 0
-103.914 0
-103.904 0
-103.894 0
-103.884 0
-103.874 0
-103.864 0
-103.854 0
-103.844 0
-103.834 0
-103.824 0
-103.814 0
-103.804 0
-103.794 0
-103.784 0
-103.774 0
-103.764 0
-103.754 0
-103.744 0
-103.734 0
-103.724 0
-103.714 0
-103.704 0
-103.694 0
-103.684 0
-103.674 0
-103.664 0
-103.654 0
-103.644 0
-103.634 0
-103.624 0
-103.614 0
-103.604 0
-103.594 0
-103.584 0
-103.574 0
-103.564 0
-103.554 0
-103.544 0
-103.534 0
-103.524 0
-103.514 0
-103.504 0
-103.494 0
-103.484 0
-103.474 0
-103.464 0
-103.454 0
-103.444 0
-103.434 0
-103.424 0
-103.414 0
-103.404 0
-103.394 0
-103.384 0
-103.374 0
-103.364 0
-103.354 0
-103.344 0
-103.334 0
-103.324 0
-103.314 0
-103.304 0
-103.294 0
-103.284 0
-103.274 0
-103.264 0
-103.254 0
-103.244 0
-103.234 0
-103.224 0
-103.214 0
-103.204 0
-103.194 0
-103.184 0
-103.174 0
-103.164 0
-103.154 0
-103.144 0
-103.134 0
-103.124 0
-103.114 0
-103.104 0
-103.094 0
-103.084 0
-103.074 0
-103.064 0
-103.054 0
-103.044 0
-103.034 0
-103.024 0
-103.014 0
-103.004 0
-102.994 0
-102.984 0
-102.974 0
-102.964 0
-102.954 0
-102.944 0
-102.934 0
-102.924 0
-102.914 0
-102.904 0
-102.894 0
-102.884 0
-102.874 0
-102.864 0
-102.854 0
-102.844 0
-102.834 0
-102.824 0
-102.814 0
-102.804 0
-102.794 0
-102.784 0
-102.774 0
-102.764 0
-102.754 0
-102.744 0
-102.734 0
-102.724 0
-102.714 0
-102.704 0
-102.694 0
-102.684 0
-102.674 0
-102.664 0
-102.654 0
-102.644 0
-102.634 0
-102.624 0
-102.614 0
-102.604 0
-102.594 0
-102.584 0
-102.574 0
-102.564 0
-102.554 0
-102.544 0
-102.534 0
-102.524 0
-102.514 0
-102.504 0
-102.494 0
-102.484 0
-102.474 0
-102.464 0
-102.454 0
-102.444 0
-102.434 0
-102.424 0
-102.414 0
-102.404 0
-102.394 0
-102.384 0
-102.374 0
-102.364 0
-102.354 0
-102.344 0
-102.334 0
-102.324 0
-102.314 0
-102.304 0
-102.294 0
-102.284 0
-102.274 0
-102.264 0
-102.254 0
-102.244 0
-102.234 0
-102.224 0
-102.214 0
-102.204 0
-102.194 0
-102.184 0
-102.174 0
-102.164 0
-102.154 0
-102.144 0
-102.134 0
-102.124 0
-102.114 0
-102.104 0
-102.094 0
-102.084 0
-102.074 0
-102.064 0
-102.054 0
-102.044 0
-102.034 0
-102.024 0
-102.014 0
-102.004 0
-101.994 0
-101.984 0
-101.974 0
-101.964 0
-101.954 0
-101.944 0
-101.934 0
-101.924 0
-101.914 0
-101.904 0
-101.894 0
-101.884 0
-101.874 0
-101.864 0
-101.854 0
-101.844 0
-101.834 0
-101.824 0
-101.814 0
-101.804 0
-101.794 0
-101.784 0
-101.774 0
-101.764 0
-101.754 0
-101.744 0
-101.734 0
-101.724 0
-101.714 0
-101.704 0
-101.694 0
-101.684 0
-101.674 0
-101.664 0
-101.654 0
-101.644 0
-101.634 0
-101.624 0
-101.614 0
-101.604 0
-101.594 0
-101.584 0
-101.574 0
-101.564 0
-101.554 0
-101.544 0
-101.534 0
-101.524 0
-101.514 0
-101.504 0
-101.494 0
-101.484 0
-101.474 0
-101.464 0
-101.454 0
-101.444 0
-101.434 0
-101.424 0
-101.414 0
-101.404 0
-101.394 0
-101.384 0
-101.374 0
-101.364 0
-101.354 0
-101.344 0
-101.334 0
-101.324 0
-101.314 0
-101.304 0
-101.294 0
-101.284 0
-101.274 0
-101.264 0
-101.254 0
-101.244 0
-101.234 0
-101.224 0
-101.214 0
-101.204 0
-101.194 0
-101.184 0
-101.174 0
-101.164 0
-101.154 0
-101.144 0
-101.134 0
-101.124 0
-101.114 0
-101.104 0
-101.094 0
-101.084 0
-101.074 0
-101.064 0
-101.054 0
-101.044 0
-101.034 0
-101.024 0
-101.014 0
-101.004 0
-100.994 0
-100.984 0
-100.974 0
-100.964 0
-100.954 0
-100.944 0
-100.934 0
-100.924 0
-100.914 0
-100.904 0
-100.894 0
-100.884 0
-100.874 0
-100.864 0
-100.854 0
-100.844 0
-100.834 0
-100.824 0
-100.814 0
-100.804 0
-100.794 0
-100.784 0
-100.774 0
-100.764 0
-100.754 0
-100.744 0
-100.734 0
-100.724 0
-100.714 0
-100.704 0
-100.694 0
-100.684 0
-100.674 0
-100.664 0
-100.654 0
-100.644 0
-100.634 0
-100.624 0
-100.614 0
-100.604 0
-100.594 0
-100.584 0
-100.574 0
-100.564 0
-100.554 0
-100.544 0
-100.534 0
-100.524 0
-100.514 0
-100.504 0
-100.494 0
-100.484 0
-100.474 0
-100.464 0
-100.454 0
-100.444 0
-100.434 0
-100.424 0
-100.414 0
-100.404 0
-100.394 0
-100.384 0
-100.374 0
-100.364 0
-100.354 0
-100.344 0
-100.334 0
-100.324 0
-100.314 0
-100.304 0
-100.294 0
-100.284 0
-100.274 0
-100.264 0
-100.254 0
-100.244 0
-100.234 0
-100.224 0
-100.214 0
-100.204 0
-100.194 0
-100.184 0
-100.174 0
-100.164 0
-100.154 0
-100.144 0
-100.134 0
-100.124 0
-100.114 0
-100.104 0
-100.094 0
-100.084 0
-100.074 0
-100.064 0
-100.054 0
-100.044 0
-100.034 0
-100.024 0
-100.014 0
-100.004 0
-99.994 0
-99.984 0
-99.974 0
-99.964 0
-99.954 0
-99.944 0
-99.934 0
-99.924 0
-99.914 0
-99.904 0
-99.894 0
-99.884 0
-99.874 0
-99.864 0
-99.854 0
-99.844 0
-99.834 0
-99.824 0
-99.814 0
-99.804 0
-99.794 0
-99.784 0
-99.774 0
-99.764 0
-99.754 0
-99.744 0
-99.734 0
-99.724 0
-99.714 0
-99.704 0
-99.694 0
-99.684 0
-99.674 0
-99.664 0
-99.654 0
-99.644 0
-99.634 0
-99.624 0
-99.614 0
-99.604 0
-99.594 0
-99.584 0
-99.574 0
-99.564 0
-99.554 0
-99.544 0
-99.534 0
-99.524 0
-99.514 0
-99.504 0
-99.494 0
-99.484 0
-99.474 0
-99.464 0
-99.454 0
-99.444 0
-99.434 0
-99.424 0
-99.414 0
-99.404 0
-99.394 0
-99.384 0
-99.374 0
-99.364 0
-99.354 0
-99.344 0
-99.334 0
-99.324 0
-99.314 0
-99.304 0
-99.294 0
-99.284 0
-99.274 0
-99.264 0
-99.254 0
-99.244 0
-99.234 0
-99.224 0
-99.214 0
-99.204 0
-99.194 0
-99.184 0
-99.174 0
-99.164 0
-99.154 0
-99.144 0
-99.134 0
-99.124 0
-99.114 0
-99.104 0
-99.094 0
-99.084 0
-99.074 0
-99.064 0
-99.054 0
-99.044 0
-99.034 0
-99.024 0
-99.014 0
-99.004 0
-98.994 0
-98.984 0
-98.974 0
-98.964 0
-98.954 0
-98.944 0
-98.934 0
-98.924 0
-98.914 0
-98.904 0
-98.894 0
-98.884 0
-98.874 0
-98.864 0
-98.854 0
-98.844 0
-98.834 0
-98.824 0
-98.814 0
-98.804 0
-98.794 0
-98.784 0
-98.774 0
-98.764 0
-98.754 0
-98.744 0
-98.734 0
-98.724 0
-98.714 0
-98.704 0
-98.694 0
-98.684 0
-98.674 0
-98.664 0
-98.654 0
-98.644 0
-98.634 0
-98.624 0
-98.614 0
-98.604 0
-98.594 0
-98.584 0
-98.574 0
-98.564 0
-98.554 0
-98.544 0
-98.534 0
-98.524 0
-98.514 0
-98.504 0
-98.494 0
-98.484 0
-98.474 0
-98.464 0
-98.454 0
-98.444 0
-98.434 0
-98.424 0
-98.414 0
-98.404 0
-98.394 0
-98.384 0
-98.374 0
-98.364 0
-98.354 0
-98.344 0
-98.334 0
-98.324 0
-98.314 0
-98.304 0
-98.294 0
-98.284 0
-98.274 0
-98.264 0
-98.254 0
-98.244 0
-98.234 0
-98.224 0
-98.214 0
-98.204 0
-98.194 0
-98.184 0
-98.174 0
-98.164 0
-98.154 0
-98.144 0
-98.134 0
-98.124 0
-98.114 0
-98.104 0
-98.094 0
-98.084 0
-98.074 0
-98.064 0
-98.054 0
-98.044 0
-98.034 0
-98.024 0
-98.014 0
-98.004 0
-97.994 0
-97.984 0
-97.974 0
-97.964 0
-97.954 0
-97.944 0
-97.934 0
-97.924 0
-97.914 0
-97.904 0
-97.894 0
-97.884 0
-97.874 0
-97.864 0
-97.854 0
-97.844 0
-97.834 0
-97.824 0
-97.814 0
-97.804 0
-97.794 0
-97.784 0
-97.774 0
-97.764 0
-97.754 0
-97.744 0
-97.734 0
-97.724 0
-97.714 0
-97.704 0
-97.694 0
-97.684 0
-97.674 0
-97.664 0
-97.654 0
-97.644 0
-97.634 0
-97.624 0
-97.614 0
-97.604 0
-97.594 0
-97.584 0
-97.574 0
-97.564 0
-97.554 0
-97.544 0
-97.534 0
-97.524 0
-97.514 0
-97.504 0
-97.494 0
-97.484 0
-97.474 0
-97.464 0
-97.454 0
-97.444 0
-97.434 0
-97.424 0
-97.414 0
-97.404 0
-97.394 0
-97.384 0
-97.374 0
-97.364 0
-97.354 0
-97.344 0
-97.334 0
-97.324 0
-97.314 0
-97.304 0
-97.294 0
-97.284 0
-97.274 0
-97.264 0
-97.254 0
-97.244 0
-97.234 0
-97.224 0
-97.214 0
-97.204 0
-97.194 0
-97.184 0
-97.174 0
-97.164 0
-97.154 0
-97.144 0
-97.134 0
-97.124 0
-97.114 0
-97.104 0
-97.094 0
-97.084 0
-97.074 0
-97.064 0
-97.054 0
-97.044 0
-97.034 0
-97.024 0
-97.014 0
-97.004 0
-96.994 0
-96.984 0
-96.974 0
-96.964 0
-96.954 0
-96.944 0
-96.934 0
-96.924 0
-96.914 0
-96.904 0
-96.894 0
-96.884 0
-96.874 0
-96.864 0
-96.854 0
-96.844 0
-96.834 0
-96.824 0
-96.814 0
-96.804 0
-96.794 0
-96.784 0
-96.774 0
-96.764 0
-96.754 0
-96.744 0
-96.734 0
-96.724 0
-96.714 0
-96.704 0
-96.694 0
-96.684 0
-96.674 0
-96.664 0
-96.654 0
-96.644 0
-96.634 0
-96.624 0
-96.614 0
-96.604 0
-96.594 0
-96.584 0
-96.574 0
-96.564 0
-96.554 0
-96.544 0
-96.534 0
-96.524 0
-96.514 0
-96.504 0
-96.494 0
-96.484 0
-96.474 0
-96.464 0
-96.454 0
-96.444 0
-96.434 0
-96.424 0
-96.414 0
-96.404 0
-96.394 0
-96.384 0
-96.374 0
-96.364 0
-96.354 0
-96.344 0
-96.334 0
-96.324 0
-96.314 0
-96.304 0
-96.294 0
-96.284 0
-96.274 0
-96.264 0
-96.254 0
-96.244 0
-96.234 0
-96.224 0
-96.214 0
-96.204 0
-96.194 0
-96.184 0
-96.174 0
-96.164 0
-96.154 0
-96.144 0
-96.134 0
-96.124 0
-96.114 0
-96.104 0
-96.094 0
-96.084 0
-96.074 0
-96.064 0
-96.054 0
-96.044 0
-96.034 0
-96.024 0
-96.014 0
-96.004 0
-95.994 0
-95.984 0
-95.974 0
-95.964 0
-95.954 0
-95.944 0
-95.934 0
-95.924 0
-95.914 0
-95.904 0
-95.894 0
-95.884 0
-95.874 0
-95.864 0
-95.854 0
-95.844 0
-95.834 0
-95.824 0
-95.814 0
-95.804 0
-95.794 0
-95.784 0
-95.774 0
-95.764 0
-95.754 0
-95.744 0
-95.734 0
-95.724 0
-95.714 0
-95.704 0
-95.694 0
-95.684 0
-95.674 0
-95.664 0
-95.654 0
-95.644 0
-95.634 0
-95.624 0
-95.614 0
-95.604 0
-95.594 0
-95.584 0
-95.574 0
-95.564 0
-95.554 0
-95.544 0
-95.534 0
-95.524 0
-95.514 0
-95.504 0
-95.494 0
-95.484 0
-95.474 0
-95.464 0
-95.454 0
-95.444 0
-95.434 0
-95.424 0
-95.414 0
-95.404 0
-95.394 0
-95.384 0
-95.374 0
-95.364 0
-95.354 0
-95.344 0
-95.334 0
-95.324 0
-95.314 0
-95.304 0
-95.294 0
-95.284 0
-95.274 0
-95.264 0
-95.254 0
-95.244 0
-95.234 0
-95.224 0
-95.214 0
-95.204 0
-95.194 0
-95.184 0
-95.174 0
-95.164 0
-95.154 0
-95.144 0
-95.134 0
-95.124 0
-95.114 0
-95.104 0
-95.094 0
-95.084 0
-95.074 0
-95.064 0
-95.054 0
-95.044 0
-95.034 0
-95.024 0
-95.014 0
-95.004 0
-94.994 0
-94.984 0
-94.974 0
-94.964 0
-94.954 0
-94.944 0
-94.934 0
-94.924 0
-94.914 0
-94.904 0
-94.894 0
-94.884 0
-94.874 0
-94.864 0
-94.854 0
-94.844 0
-94.834 0
-94.824 0
-94.814 0
-94.804 0
-94.794 0
-94.784 0
-94.774 0
-94.764 0
-94.754 0
-94.744 0
-94.734 0
-94.724 0
-94.714 0
-94.704 0
-94.694 0
-94.684 0
-94.674 0
-94.664 0
-94.654 0
-94.644 0
-94.634 0
-94.624 0
-94.614 0
-94.604 0
-94.594 0
-94.584 0
-94.574 0
-94.564 0
-94.554 0
-94.544 0
-94.534 0
-94.524 0
-94.514 0
-94.504 0
-94.494 0
-94.484 0
-94.474 0
-94.464 0
-94.454 0
-94.444 0
-94.434 0
-94.424 0
-94.414 0
-94.404 0
-94.394 0
-94.384 0
-94.374 0
-94.364 0
-94.354 0
-94.344 0
-94.334 0
-94.324 0
-94.314 0
-94.304 0
-94.294 0
-94.284 0
-94.274 0
-94.264 0
-94.254 0
-94.244 0
-94.234 0
-94.224 0
-94.214 0
-94.204 0
-94.194 0
-94.184 0
-94.174 0
-94.164 0
-94.154 0
-94.144 0
-94.134 0
-94.124 0
-94.114 0
-94.104 0
-94.094 0
-94.084 0
-94.074 0
-94.064 0
-94.054 0
-94.044 0
-94.034 0
-94.024 0
-94.014 0
-94.004 0
-93.994 0
-93.984 0
-93.974 0
-93.964 0
-93.954 0
-93.944 0
-93.934 0
-93.924 0
-93.914 0
-93.904 0
-93.894 0
-93.884 0
-93.874 0
-93.864 0
-93.854 0
-93.844 0
-93.834 0
-93.824 0
-93.814 0
-93.804 0
-93.794 0
-93.784 0
-93.774 0
-93.764 0
-93.754 0
-93.744 0
-93.734 0
-93.724 0
-93.714 0
-93.704 0
-93.694 0
-93.684 0
-93.674 0
-93.664 0
-93.654 0
-93.644 0
-93.634 0
-93.624 0
-93.614 0
-93.604 0
-93.594 0
-93.584 0
-93.574 0
-93.564 0
-93.554 0
-93.544 0
-93.534 0
-93.524 0
-93.514 0
-93.504 0
-93.494 0
-93.484 0
-93.474 0
-93.464 0
-93.454 0
-93.444 0
-93.434 0
-93.424 0
-93.414 0
-93.404 0
-93.394 0
-93.384 0
-93.374 0
-93.364 0
-93.354 0
-93.344 0
-93.334 0
-93.324 0
-93.314 0
-93.304 0
-93.294 0
-93.284 0
-93.274 0
-93.264 0
-93.254 0
-93.244 0
-93.234 0
-93.224 0
-93.214 0
-93.204 0
-93.194 0
-93.184 0
-93.174 0
-93.164 0
-93.154 0
-93.144 0
-93.134 0
-93.124 0
-93.114 0
-93.104 0
-93.094 0
-93.084 0
-93.074 0
-93.064 0
-93.054 0
-93.044 0
-93.034 0
-93.024 0
-93.014 0
-93.004 0
-92.994 0
-92.984 0
-92.974 0
-92.964 0
-92.954 0
-92.944 0
-92.934 0
-92.924 0
-92.914 0
-92.904 0
-92.894 0
-92.884 0
-92.874 0
-92.864 0
-92.854 0
-92.844 0
-92.834 0
-92.824 0
-92.814 0
-92.804 0
-92.794 0
-92.784 0
-92.774 0
-92.764 0
-92.754 0
-92.744 0
-92.734 0
-92.724 0
-92.714 0
-92.704 0
-92.694 0
-92.684 0
-92.674 0
-92.664 0
-92.654 0
-92.644 0
-92.634 0
-92.624 0
-92.614 0
-92.604 0
-92.594 0
-92.584 0
-92.574 0
-92.564 0
-92.554 0
-92.544 0
-92.534 0
-92.524 0
-92.514 0
-92.504 0
-92.494 0
-92.484 0
-92.474 0
-92.464 0
-92.454 0
-92.444 0
-92.434 0
-92.424 0
-92.414 0
-92.404 0
-92.394 0
-92.384 0
-92.374 0
-92.364 0
-92.354 0
-92.344 0
-92.334 0
-92.324 0
-92.314 0
-92.304 0
-92.294 0
-92.284 0
-92.274 0
-92.264 0
-92.254 0
-92.244 0
-92.234 0
-92.224 0
-92.214 0
-92.204 0
-92.194 0
-92.184 0
-92.174 0
-92.164 0
-92.154 0
-92.144 0
-92.134 0
-92.124 0
-92.114 0
-92.104 0
-92.094 0
-92.084 0
-92.074 0
-92.064 0
-92.054 0
-92.044 0
-92.034 0
-92.024 0
-92.014 0
-92.004 0
-91.994 0
-91.984 0
-91.974 0
-91.964 0
-91.954 0
-91.944 0
-91.934 0
-91.924 0
-91.914 0
-91.904 0
-91.894 0
-91.884 0
-91.874 0
-91.864 0
-91.854 0
-91.844 0
-91.834 0
-91.824 0
-91.814 0
-91.804 0
-91.794 0
-91.784 0
-91.774 0
-91.764 0
-91.754 0
-91.744 0
-91.734 0
-91.724 0
-91.714 0
-91.704 0
-91.694 0
-91.684 0
-91.674 0
-91.664 0
-91.654 0
-91.644 0
-91.634 0
-91.624 0
-91.614 0
-91.604 0
-91.594 0
-91.584 0
-91.574 0
-91.564 0
-91.554 0
-91.544 0
-91.534 0
-91.524 0
-91.514 0
-91.504 0
-91.494 0
-91.484 0
-91.474 0
-91.464 0
-91.454 0
-91.444 0
-91.434 0
-91.424 0
-91.414 0
-91.404 0
-91.394 0
-91.384 0
-91.374 0
-91.364 0
-91.354 0
-91.344 0
-91.334 0
-91.324 0
-91.314 0
-91.304 0
-91.294 0
-91.284 0
-91.274 0
-91.264 0
-91.254 0
-91.244 0
-91.234 0
-91.224 0
-91.214 0
-91.204 0
-91.194 0
-91.184 0
-91.174 0
-91.164 0
-91.154 0
-91.144 0
-91.134 0
-91.124 0
-91.114 0
-91.104 0
-91.094 0
-91.084 0
-91.074 0
-91.064 0
-91.054 0
-91.044 0
-91.034 0
-91.024 0
-91.014 0
-91.004 0
-90.994 0
-90.984 0
-90.974 0
-90.964 0
-90.954 0
-90.944 0
-90.934 0
-90.924 0
-90.914 0
-90.904 0
-90.894 0
-90.884 0
-90.874 0
-90.864 0
-90.854 0
-90.844 0
-90.834 0
-90.824 0
-90.814 0
-90.804 0
-90.794 0
-90.784 0
-90.774 0
-90.764 0
-90.754 0
-90.744 0
-90.734 0
-90.724 0
-90.714 0
-90.704 0
-90.694 0
-90.684 0
-90.674 0
-90.664 0
-90.654 0
-90.644 0
-90.634 0
-90.624 0
-90.614 0
-90.604 0
-90.594 0
-90.584 0
-90.574 0
-90.564 0
-90.554 0
-90.544 0
-90.534 0
-90.524 0
-90.514 0
-90.504 0
-90.494 0
-90.484 0
-90.474 0
-90.464 0
-90.454 0
-90.444 0
-90.434 0
-90.424 0
-90.414 0
-90.404 0
-90.394 0
-90.384 0
-90.374 0
-90.364 0
-90.354 0
-90.344 0
-90.334 0
-90.324 0
-90.314 0
-90.304 0
-90.294 0
-90.284 0
-90.274 0
-90.264 0
-90.254 0
-90.244 0
-90.234 0
-90.224 0
-90.214 0
-90.204 0
-90.194 0
-90.184 0
-90.174 0
-90.164 0
-90.154 0
-90.144 0
-90.134 0
-90.124 0
-90.114 0
-90.104 0
-90.094 0
-90.084 0
-90.074 0
-90.064 0
-90.054 0
-90.044 0
-90.034 0
-90.024 0
-90.014 0
-90.004 0
-89.994 0
-89.984 0
-89.974 0
-89.964 0
-89.954 0
-89.944 0
-89.934 0
-89.924 0
-89.914 0
-89.904 0
-89.894 0
-89.884 0
-89.874 0
-89.864 0
-89.854 0
-89.844 0
-89.834 0
-89.824 0
-89.814 0
-89.804 0
-89.794 0
-89.784 0
-89.774 0
-89.764 0
-89.754 0
-89.744 0
-89.734 0
-89.724 0
-89.714 0
-89.704 0
-89.694 0
-89.684 0
-89.674 0
-89.664 0
-89.654 0
-89.644 0
-89.634 0
-89.624 0
-89.614 0
-89.604 0
-89.594 0
-89.584 0
-89.574 0
-89.564 0
-89.554 0
-89.544 0
-89.534 0
-89.524 0
-89.514 0
-89.504 0
-89.494 0
-89.484 0
-89.474 0
-89.464 0
-89.454 0
-89.444 0
-89.434 0
-89.424 0
-89.414 0
-89.404 0
-89.394 0
-89.384 0
-89.374 0
-89.364 0
-89.354 0
-89.344 0
-89.334 0
-89.324 0
-89.314 0
-89.304 0
-89.294 0
-89.284 0
-89.274 0
-89.264 0
-89.254 0
-89.244 0
-89.234 0
-89.224 0
-89.214 0
-89.204 0
-89.194 0
-89.184 0
-89.174 0
-89.164 0
-89.154 0
-89.144 0
-89.134 0
-89.124 0
-89.114 0
-89.104 0
-89.094 0
-89.084 0
-89.074 0
-89.064 0
-89.054 0
-89.044 0
-89.034 0
-89.024 0
-89.014 0
-89.004 0
-88.994 0
-88.984 0
-88.974 0
-88.964 0
-88.954 0
-88.944 0
-88.934 0
-88.924 0
-88.914 0
-88.904 0
-88.894 0
-88.884 0
-88.874 0
-88.864 0
-88.854 0
-88.844 0
-88.834 0
-88.824 0
-88.814 0
-88.804 0
-88.794 0
-88.784 0
-88.774 0
-88.764 0
-88.754 0
-88.744 0
-88.734 0
-88.724 0
-88.714 0
-88.704 0
-88.694 0
-88.684 0
-88.674 0
-88.664 0
-88.654 0
-88.644 0
-88.634 0
-88.624 0
-88.614 0
-88.604 0
-88.594 0
-88.584 0
-88.574 0
-88.564 0
-88.554 0
-88.544 0
-88.534 0
-88.524 0
-88.514 0
-88.504 0
-88.494 0
-88.484 0
-88.474 0
-88.464 0
-88.454 0
-88.444 0
-88.434 0
-88.424 0
-88.414 0
-88.404 0
-88.394 0
-88.384 0
-88.374 0
-88.364 0
-88.354 0
-88.344 0
-88.334 0
-88.324 0
-88.314 0
-88.304 0
-88.294 0
-88.284 0
-88.274 0
-88.264 0
-88.254 0
-88.244 0
-88.234 0
-88.224 0
-88.214 0
-88.204 0
-88.194 0
-88.184 0
-88.174 0
-88.164 0
-88.154 0
-88.144 0
-88.134 0
-88.124 0
-88.114 0
-88.104 0
-88.094 0
-88.084 0
-88.074 0
-88.064 0
-88.054 0
-88.044 0
-88.034 0
-88.024 0
-88.014 0
-88.004 0
-87.994 0
-87.984 0
-87.974 0
-87.964 0
-87.954 0
-87.944 0
-87.934 0
-87.924 0
-87.914 0
-87.904 0
-87.894 0
-87.884 0
-87.874 0
-87.864 0
-87.854 0
-87.844 0
-87.834 0
-87.824 0
-87.814 0
-87.804 0
-87.794 0
-87.784 0
-87.774 0
-87.764 0
-87.754 0
-87.744 0
-87.734 0
-87.724 0
-87.714 0
-87.704 0
-87.694 0
-87.684 0
-87.674 0
-87.664 0
-87.654 0
-87.644 0
-87.634 0
-87.624 0
-87.614 0
-87.604 0
-87.594 0
-87.584 0
-87.574 0
-87.564 0
-87.554 0
-87.544 0
-87.534 0
-87.524 0
-87.514 0
-87.504 0
-87.494 0
-87.484 0
-87.474 0
-87.464 0
-87.454 0
-87.444 0
-87.434 0
-87.424 0
-87.414 0
-87.404 0
-87.394 0
-87.384 0
-87.374 0
-87.364 0
-87.354 0
-87.344 0
-87.334 0
-87.324 0
-87.314 0
-87.304 0
-87.294 0
-87.284 0
-87.274 0
-87.264 0
-87.254 0
-87.244 0
-87.234 0
-87.224 0
-87.214 0
-87.204 0
-87.194 0
-87.184 0
-87.174 0
-87.164 0
-87.154 0
-87.144 0
-87.134 0
-87.124 0
-87.114 0
-87.104 0
-87.094 0
-87.084 0
-87.074 0
-87.064 0
-87.054 0
-87.044 0
-87.034 0
-87.024 0
-87.014 0
-87.004 0
-86.994 0
-86.984 0
-86.974 0
-86.964 0
-86.954 0
-86.944 0
-86.934 0
-86.924 0
-86.914 0
-86.904 0
-86.894 0
-86.884 0
-86.874 0
-86.864 0
-86.854 0
-86.844 0
-86.834 0
-86.824 0
-86.814 0
-86.804 0
-86.794 0
-86.784 0
-86.774 0
-86.764 0
-86.754 0
-86.744 0
-86.734 0
-86.724 0
-86.714 0