
     Program BANDS v.7.3.1 starts on 26Mar2024 at 21:36:43 

     This program is part of the open-source Quantum ESPRESSO suite
     for quantum simulation of materials; please cite
         "P. Giannozzi et al., J. Phys.:Condens. Matter 21 395502 (2009);
         "P. Giannozzi et al., J. Phys.:Condens. Matter 29 465901 (2017);
         "P. Giannozzi et al., J. Chem. Phys. 152 154105 (2020);
          URL http://www.quantum-espresso.org", 
     in publications or presentations arising from this work. More details at
     http://www.quantum-espresso.org/quote

     Parallel version (MPI & OpenMP), running on      16 processor cores
     Number of MPI processes:                16
     Threads/MPI process:                     1

     MPI processes distributed on     2 nodes
     K-points division:     npool     =       4
     R & G space division:  proc/nbgrp/npool/nimage =       4
     20917 MiB available memory on the printing compute node when the environment starts


     Reading xml data from directory:

     ./TMP/zno.save/
     file Zn.pbesol-spn-rrkjus_gipaw.1.0.0.UPF: wavefunction(s)  3P renormalized

     IMPORTANT: XC functional enforced from input :
     Exchange-correlation= PBESOL
                           (   1   4  10   8   0   0   0)
     Any further DFT definition will be discarded
     Please, verify this is what you really want


     Parallelization info
     --------------------
     sticks:   dense  smooth     PW     G-vecs:    dense   smooth      PW
     Min         382     153     46                19836     5019     834
     Max         383     154     47                19845     5020     837
     Sum        1531     613    187                79367    20077    3345

     Using Slab Decomposition

     Reading collected, re-writing distributed wavefunctions
     high-symmetry point:  0.0000 0.0000 0.0000   x coordinate   0.0000
     high-symmetry point:  0.5000 0.2887 0.0000   x coordinate   0.5774
     high-symmetry point:  0.6667 0.0000 0.0000   x coordinate   0.9107
     high-symmetry point:  0.0000 0.0000 0.0000   x coordinate   1.5774
     high-symmetry point:  0.0000 0.0000 0.3100   x coordinate   1.8873
     high-symmetry point:  0.5000 0.2887 0.3100   x coordinate   2.4647
     high-symmetry point:  0.6667 0.0000 0.3100   x coordinate   2.7980
     high-symmetry point:  0.0000 0.0000 0.3100   x coordinate   3.4647
     high-symmetry point:  0.5000 0.2887 0.3100   x coordinate   3.4647
     high-symmetry point:  0.5000 0.2887 0.0000   x coordinate   3.7746
     high-symmetry point:  0.6667-0.0000 0.3100   x coordinate   3.7746
     high-symmetry point:  0.6667 0.0000 0.0000   x coordinate   4.0846

     Plottable bands (eV) written to file ZnO.bands.gnu
     Bands written to file ZnO.bands

 **************************************************************************

                    xk=(   0.00000,   0.00000,   0.00000  )

     point group C_6v (6mm) 
     there are  6 classes
     the character table:

       E     2C6   2C3   C2    3s_v  3s_d 
A_1    1.00  1.00  1.00  1.00  1.00  1.00
A_2    1.00  1.00  1.00  1.00 -1.00 -1.00
B_1    1.00 -1.00  1.00 -1.00  1.00 -1.00
B_2    1.00 -1.00  1.00 -1.00 -1.00  1.00
E_1    2.00  1.00 -1.00 -2.00  0.00  0.00
E_2    2.00 -1.00 -1.00  2.00  0.00  0.00

     the symmetry operations in each class and the name of the first element:

     E        1
                                                                 
     2C6      3    4
                                                                 
     2C3      5    6
                                                                 
     C2       2
                                                                 
     3s_v     8   12   11
                                                                 
     3s_d     7    9   10
                                                                 

     Band symmetry, C_6v (6mm)  point group:

     e(  1 -  1) =   -114.31752  eV     1   --> A_1            
     e(  2 -  2) =   -114.31702  eV     1   --> B_1            
     e(  3 -  3) =    -68.65584  eV     1   --> B_1            
     e(  4 -  4) =    -68.65333  eV     1   --> A_1            
     e(  5 -  6) =    -68.64751  eV     2   --> E_2            
     e(  7 -  8) =    -68.64676  eV     2   --> E_1            
     e(  9 -  9) =     -9.23301  eV     1   --> A_1            
     e( 10 - 10) =     -8.48475  eV     1   --> B_1            
     e( 11 - 12) =      3.06413  eV     2   --> E_1            
     e( 13 - 13) =      3.09291  eV     1   --> B_1            
     e( 14 - 14) =      3.10860  eV     1   --> A_1            
     e( 15 - 16) =      3.25805  eV     2   --> E_2            
     e( 17 - 18) =      4.25986  eV     2   --> E_1            
     e( 19 - 20) =      4.47385  eV     2   --> E_2            
     e( 21 - 21) =      4.75275  eV     1   --> B_1            
     e( 22 - 23) =      8.01665  eV     2   --> E_2            
     e( 24 - 24) =      8.72616  eV     1   --> A_1            
     e( 25 - 26) =      8.81762  eV     2   --> E_1            
     e( 27 - 27) =      9.53481  eV     1   --> A_1            
     e( 28 - 28) =     14.00313  eV     1   --> B_1            
     e( 29 - 29) =     16.92283  eV     1   --> B_1            
     e( 30 - 31) =     21.69156  eV     2   --> E_1            
     e( 32 - 32) =     22.75417  eV     1   --> A_1            
     e( 33 - 34) =     22.96345  eV     2   --> E_2            
     e( 35 - 35) =     25.20543  eV     1   --> A_1            
     e( 36 - 37) =     26.91420  eV     2   --> E_1            
     e( 38 - 39) =     28.56118  eV     2   --> E_2            
     e( 40 - 40) =     28.61512  eV     1   --> B_1            
     e( 41 - 41) =     29.95150  eV     1   --> A_1            
     e( 42 - 42) =     31.84880  eV     1   --> B_1            
     e( 43 - 44) =     33.62071  eV     2   --> E_2            
     e( 45 - 45) =     36.23045  eV     1   --> B_1            
     e( 46 - 47) =     37.19389  eV     2   --> E_1            
     e( 48 - 48) =     37.50440  eV     1   --> A_1            
     e( 49 - 50) =     39.89842  eV     2   --> E_2            

 **************************************************************************

 **************************************************************************

                    xk=(   0.02500,   0.01443,   0.00000  )

     point group C_s (m)    
     there are  2 classes
     the character table:

       E     s    
A'     1.00  1.00
A''    1.00 -1.00

     the symmetry operations in each class and the name of the first element:

     E        1
                                                                 
     s        2
                                                                 

     Band symmetry, C_s (m)     point group:

     e(  1 -  1) =   -114.31752  eV     1   --> A'             
     e(  2 -  2) =   -114.31702  eV     1   --> A'             
     e(  3 -  3) =    -68.65582  eV     1   --> A'             
     e(  4 -  4) =    -68.65332  eV     1   --> A'             
     e(  5 -  6) =    -68.64751  eV     2   --> A'             
     e(  5 -  6) =    -68.64751  eV     2   --> A''            
     e(  7 -  8) =    -68.64675  eV     2   --> A'             
     e(  7 -  8) =    -68.64675  eV     2   --> A''            
     e(  9 -  9) =     -9.22937  eV     1   --> A'             
     e( 10 - 10) =     -8.48309  eV     1   --> A'             
     e( 11 - 11) =      3.05915  eV     1   --> A'             
     e( 12 - 12) =      3.06622  eV     1   --> A''            
     e( 13 - 13) =      3.09801  eV     1   --> A'             
     e( 14 - 14) =      3.11171  eV     1   --> A'             
     e( 15 - 15) =      3.25758  eV     1   --> A'             
     e( 16 - 16) =      3.26093  eV     1   --> A''            
     e( 17 - 17) =      4.25830  eV     1   --> A'             
     e( 18 - 18) =      4.25955  eV     1   --> A''            
     e( 19 - 19) =      4.47420  eV     1   --> A''            
     e( 20 - 20) =      4.47648  eV     1   --> A'             
     e( 21 - 21) =      4.75193  eV     1   --> A'             
     e( 22 - 22) =      7.99245  eV     1   --> A'             
     e( 23 - 23) =      8.00789  eV     1   --> A''            
     e( 24 - 24) =      8.71947  eV     1   --> A'             
     e( 25 - 25) =      8.74610  eV     1   --> A'             
     e( 26 - 26) =      8.81303  eV     1   --> A''            
     e( 27 - 27) =      9.61662  eV     1   --> A'             
     e( 28 - 28) =     14.03156  eV     1   --> A'             
     e( 29 - 29) =     16.92242  eV     1   --> A'             
     e( 30 - 30) =     21.60198  eV     1   --> A'             
     e( 31 - 31) =     21.69746  eV     1   --> A''            
     e( 32 - 32) =     22.77053  eV     1   --> A'             
     e( 33 - 33) =     22.90928  eV     1   --> A'             
     e( 34 - 34) =     22.97385  eV     1   --> A''            
     e( 35 - 35) =     25.20843  eV     1   --> A'             
     e( 36 - 36) =     26.83846  eV     1   --> A''            
     e( 37 - 37) =     26.89676  eV     1   --> A'             
     e( 38 - 38) =     28.42062  eV     1   --> A'             
     e( 39 - 39) =     28.67266  eV     1   --> A''            
     e( 40 - 40) =     28.85506  eV     1   --> A'             
     e( 41 - 41) =     29.99706  eV     1   --> A'             
     e( 42 - 42) =     31.94244  eV     1   --> A'             
     e( 43 - 43) =     33.54111  eV     1   --> A'             
     e( 44 - 44) =     33.62619  eV     1   --> A''            
     e( 45 - 45) =     36.31793  eV     1   --> A'             
     e( 46 - 46) =     37.14274  eV     1   --> A'             
     e( 47 - 47) =     37.19642  eV     1   --> A''            
     e( 48 - 48) =     37.51637  eV     1   --> A'             
     e( 49 - 49) =     39.83931  eV     1   --> A''            
     e( 50 - 50) =     39.84579  eV     1   --> A'             

 **************************************************************************

 **************************************************************************

                    xk=(   0.05000,   0.02887,   0.00000  )

     Band symmetry, C_s (m)     point group:

     e(  1 -  1) =   -114.31747  eV     1   --> A'             
     e(  2 -  2) =   -114.31710  eV     1   --> A'             
     e(  3 -  3) =    -68.65568  eV     1   --> A'             
     e(  4 -  4) =    -68.65289  eV     1   --> A'             
     e(  5 -  5) =    -68.64804  eV     1   --> A'             
     e(  6 -  6) =    -68.64758  eV     1   --> A''            
     e(  7 -  7) =    -68.64685  eV     1   --> A'             
     e(  8 -  8) =    -68.64668  eV     1   --> A''            
     e(  9 -  9) =     -9.21850  eV     1   --> A'             
     e( 10 - 10) =     -8.47815  eV     1   --> A'             
     e( 11 - 11) =      3.04512  eV     1   --> A'             
     e( 12 - 12) =      3.07244  eV     1   --> A''            
     e( 13 - 13) =      3.11320  eV     1   --> A'             
     e( 14 - 14) =      3.12001  eV     1   --> A'             
     e( 15 - 15) =      3.25646  eV     1   --> A'             
     e( 16 - 16) =      3.26953  eV     1   --> A''            
     e( 17 - 17) =      4.25367  eV     1   --> A'             
     e( 18 - 18) =      4.25871  eV     1   --> A''            
     e( 19 - 19) =      4.47522  eV     1   --> A''            
     e( 20 - 20) =      4.48438  eV     1   --> A'             
     e( 21 - 21) =      4.74949  eV     1   --> A'             
     e( 22 - 22) =      7.92061  eV     1   --> A'             
     e( 23 - 23) =      7.98185  eV     1   --> A''            
     e( 24 - 24) =      8.57773  eV     1   --> A'             
     e( 25 - 25) =      8.71090  eV     1   --> A'             
     e( 26 - 26) =      8.79932  eV     1   --> A''            
     e( 27 - 27) =      9.80517  eV     1   --> A'             
     e( 28 - 28) =     14.11439  eV     1   --> A'             
     e( 29 - 29) =     16.92111  eV     1   --> A'             
     e( 30 - 30) =     21.36291  eV     1   --> A'             
     e( 31 - 31) =     21.71511  eV     1   --> A''            
     e( 32 - 32) =     22.73095  eV     1   --> A'             
     e( 33 - 33) =     22.83483  eV     1   --> A'             
     e( 34 - 34) =     23.00323  eV     1   --> A''            
     e( 35 - 35) =     25.16602  eV     1   --> A'             
     e( 36 - 36) =     26.65980  eV     1   --> A''            
     e( 37 - 37) =     26.88671  eV     1   --> A'             
     e( 38 - 38) =     28.39251  eV     1   --> A'             
     e( 39 - 39) =     28.95996  eV     1   --> A''            
     e( 40 - 40) =     29.16340  eV     1   --> A'             
     e( 41 - 41) =     30.13944  eV     1   --> A'             
     e( 42 - 42) =     32.20580  eV     1   --> A'             
     e( 43 - 43) =     33.33831  eV     1   --> A'             
     e( 44 - 44) =     33.64277  eV     1   --> A''            
     e( 45 - 45) =     36.55042  eV     1   --> A'             
     e( 46 - 46) =     37.01224  eV     1   --> A'             
     e( 47 - 47) =     37.20373  eV     1   --> A''            
     e( 48 - 48) =     37.52833  eV     1   --> A'             
     e( 49 - 49) =     39.67745  eV     1   --> A''            
     e( 50 - 50) =     39.71336  eV     1   --> A'             

 **************************************************************************

 **************************************************************************

                    xk=(   0.07500,   0.04330,   0.00000  )

     Band symmetry, C_s (m)     point group:

     e(  1 -  1) =   -114.31735  eV     1   --> A'             
     e(  2 -  2) =   -114.31703  eV     1   --> A'             
     e(  3 -  3) =    -68.65534  eV     1   --> A'             
     e(  4 -  4) =    -68.65261  eV     1   --> A'             
     e(  5 -  5) =    -68.64801  eV     1   --> A'             
     e(  6 -  6) =    -68.64769  eV     1   --> A''            
     e(  7 -  7) =    -68.64658  eV     1   --> A''            
     e(  8 -  8) =    -68.64648  eV     1   --> A'             
     e(  9 -  9) =     -9.20053  eV     1   --> A'             
     e( 10 - 10) =     -8.47006  eV     1   --> A'             
     e( 11 - 11) =      3.02378  eV     1   --> A'             
     e( 12 - 12) =      3.08255  eV     1   --> A''            
     e( 13 - 13) =      3.12941  eV     1   --> A'             
     e( 14 - 14) =      3.14030  eV     1   --> A'             
     e( 15 - 15) =      3.25591  eV     1   --> A'             
     e( 16 - 16) =      3.28376  eV     1   --> A''            
     e( 17 - 17) =      4.24612  eV     1   --> A'             
     e( 18 - 18) =      4.25759  eV     1   --> A''            
     e( 19 - 19) =      4.47683  eV     1   --> A''            
     e( 20 - 20) =      4.49751  eV     1   --> A'             
     e( 21 - 21) =      4.74556  eV     1   --> A'             
     e( 22 - 22) =      7.80361  eV     1   --> A'             
     e( 23 - 23) =      7.93925  eV     1   --> A''            
     e( 24 - 24) =      8.38648  eV     1   --> A'             
     e( 25 - 25) =      8.68959  eV     1   --> A'             
     e( 26 - 26) =      8.77666  eV     1   --> A''            
     e( 27 - 27) =     10.03877  eV     1   --> A'             
     e( 28 - 28) =     14.24814  eV     1   --> A'             
     e( 29 - 29) =     16.91898  eV     1   --> A'             
     e( 30 - 30) =     21.02966  eV     1   --> A'             
     e( 31 - 31) =     21.74434  eV     1   --> A''            
     e( 32 - 32) =     22.49927  eV     1   --> A'             
     e( 33 - 33) =     22.88436  eV     1   --> A'             
     e( 34 - 34) =     23.04617  eV     1   --> A''            
     e( 35 - 35) =     24.99866  eV     1   --> A'             
     e( 36 - 36) =     26.45346  eV     1   --> A''            
     e( 37 - 37) =     26.94817  eV     1   --> A'             
     e( 38 - 38) =     28.49432  eV     1   --> A'             
     e( 39 - 39) =     29.35199  eV     1   --> A''            
     e( 40 - 40) =     29.50118  eV     1   --> A'             
     e( 41 - 41) =     30.37090  eV     1   --> A'             
     e( 42 - 42) =     32.56261  eV     1   --> A'             
     e( 43 - 43) =     33.12375  eV     1   --> A'             
     e( 44 - 44) =     33.67101  eV     1   --> A''            
     e( 45 - 45) =     36.82978  eV     1   --> A'             
     e( 46 - 46) =     36.87177  eV     1   --> A'             
     e( 47 - 47) =     37.21483  eV     1   --> A''            
     e( 48 - 48) =     37.51189  eV     1   --> A'             
     e( 49 - 49) =     39.44618  eV     1   --> A''            
     e( 50 - 50) =     39.55868  eV     1   --> A'             

 **************************************************************************

 **************************************************************************

                    xk=(   0.10000,   0.05774,   0.00000  )

     Band symmetry, C_s (m)     point group:

     e(  1 -  1) =   -114.31747  eV     1   --> A'             
     e(  2 -  2) =   -114.31702  eV     1   --> A'             
     e(  3 -  3) =    -68.65537  eV     1   --> A'             
     e(  4 -  4) =    -68.65275  eV     1   --> A'             
     e(  5 -  5) =    -68.64802  eV     1   --> A''            
     e(  6 -  6) =    -68.64781  eV     1   --> A'             
     e(  7 -  8) =    -68.64689  eV     2   --> A'             
     e(  7 -  8) =    -68.64689  eV     2   --> A''            
     e(  9 -  9) =     -9.17595  eV     1   --> A'             
     e( 10 - 10) =     -8.45915  eV     1   --> A'             
     e( 11 - 11) =      2.99642  eV     1   --> A'             
     e( 12 - 12) =      3.09624  eV     1   --> A''            
     e( 13 - 13) =      3.14283  eV     1   --> A'             
     e( 14 - 14) =      3.17211  eV     1   --> A'             
     e( 15 - 15) =      3.25945  eV     1   --> A'             
     e( 16 - 16) =      3.30344  eV     1   --> A''            
     e( 17 - 17) =      4.23584  eV     1   --> A'             
     e( 18 - 18) =      4.25657  eV     1   --> A''            
     e( 19 - 19) =      4.47892  eV     1   --> A''            
     e( 20 - 20) =      4.51576  eV     1   --> A'             
     e( 21 - 21) =      4.74031  eV     1   --> A'             
     e( 22 - 22) =      7.64596  eV     1   --> A'             
     e( 23 - 23) =      7.88122  eV     1   --> A''            
     e( 24 - 24) =      8.19105  eV     1   --> A'             
     e( 25 - 25) =      8.65993  eV     1   --> A'             
     e( 26 - 26) =      8.74540  eV     1   --> A''            
     e( 27 - 27) =     10.29343  eV     1   --> A'             
     e( 28 - 28) =     14.42441  eV     1   --> A'             
     e( 29 - 29) =     16.91538  eV     1   --> A'             
     e( 30 - 30) =     20.64670  eV     1   --> A'             
     e( 31 - 31) =     21.78470  eV     1   --> A''            
     e( 32 - 32) =     22.20970  eV     1   --> A'             
     e( 33 - 33) =     22.93762  eV     1   --> A'             
     e( 34 - 34) =     23.09368  eV     1   --> A''            
     e( 35 - 35) =     24.71559  eV     1   --> A'             
     e( 36 - 36) =     26.26698  eV     1   --> A''            
     e( 37 - 37) =     27.05095  eV     1   --> A'             
     e( 38 - 38) =     28.71819  eV     1   --> A'             
     e( 39 - 39) =     29.80737  eV     1   --> A''            
     e( 40 - 40) =     29.87751  eV     1   --> A'             
     e( 41 - 41) =     30.65613  eV     1   --> A'             
     e( 42 - 42) =     32.60010  eV     1   --> A'             
     e( 43 - 43) =     33.32997  eV     1   --> A'             
     e( 44 - 44) =     33.71095  eV     1   --> A''            
     e( 45 - 45) =     36.61072  eV     1   --> A'             
     e( 46 - 46) =     37.22726  eV     1   --> A''            
     e( 47 - 47) =     37.23513  eV     1   --> A'             
     e( 48 - 48) =     37.44912  eV     1   --> A'             
     e( 49 - 49) =     39.17694  eV     1   --> A''            
     e( 50 - 50) =     39.44071  eV     1   --> A'             

 **************************************************************************

 **************************************************************************

                    xk=(   0.12500,   0.07217,   0.00000  )

     Band symmetry, C_s (m)     point group:

     e(  1 -  1) =   -114.31750  eV     1   --> A'             
     e(  2 -  2) =   -114.31681  eV     1   --> A'             
     e(  3 -  3) =    -68.65488  eV     1   --> A'             
     e(  4 -  4) =    -68.65273  eV     1   --> A'             
     e(  5 -  5) =    -68.64780  eV     1   --> A''            
     e(  6 -  6) =    -68.64757  eV     1   --> A'             
     e(  7 -  7) =    -68.64710  eV     1   --> A'             
     e(  8 -  8) =    -68.64697  eV     1   --> A''            
     e(  9 -  9) =     -9.14499  eV     1   --> A'             
     e( 10 - 10) =     -8.44570  eV     1   --> A'             
     e( 11 - 11) =      2.96444  eV     1   --> A'             
     e( 12 - 12) =      3.11303  eV     1   --> A''            
     e( 13 - 13) =      3.15639  eV     1   --> A'             
     e( 14 - 14) =      3.20213  eV     1   --> A'             
     e( 15 - 15) =      3.27739  eV     1   --> A'             
     e( 16 - 16) =      3.32839  eV     1   --> A''            
     e( 17 - 17) =      4.22313  eV     1   --> A'             
     e( 18 - 18) =      4.25615  eV     1   --> A''            
     e( 19 - 19) =      4.48137  eV     1   --> A''            
     e( 20 - 20) =      4.53893  eV     1   --> A'             
     e( 21 - 21) =      4.73421  eV     1   --> A'             
     e( 22 - 22) =      7.45492  eV     1   --> A'             
     e( 23 - 23) =      7.80926  eV     1   --> A''            
     e( 24 - 24) =      7.99941  eV     1   --> A'             
     e( 25 - 25) =      8.62170  eV     1   --> A'             
     e( 26 - 26) =      8.70606  eV     1   --> A''            
     e( 27 - 27) =     10.56218  eV     1   --> A'             
     e( 28 - 28) =     14.63572  eV     1   --> A'             
     e( 29 - 29) =     16.91049  eV     1   --> A'             
     e( 30 - 30) =     20.24369  eV     1   --> A'             
     e( 31 - 31) =     21.83523  eV     1   --> A''            
     e( 32 - 32) =     21.89214  eV     1   --> A'             
     e( 33 - 33) =     22.96537  eV     1   --> A'             
     e( 34 - 34) =     23.13429  eV     1   --> A''            
     e( 35 - 35) =     24.39781  eV     1   --> A'             
     e( 36 - 36) =     26.12941  eV     1   --> A''            
     e( 37 - 37) =     27.12013  eV     1   --> A'             
     e( 38 - 38) =     29.05958  eV     1   --> A'             
     e( 39 - 39) =     30.27910  eV     1   --> A'             
     e( 40 - 40) =     30.30726  eV     1   --> A''            
     e( 41 - 41) =     30.96968  eV     1   --> A'             
     e( 42 - 42) =     32.38254  eV     1   --> A'             
     e( 43 - 43) =     33.76442  eV     1   --> A''            
     e( 44 - 44) =     33.91627  eV     1   --> A'             
     e( 45 - 45) =     36.36846  eV     1   --> A'             
     e( 46 - 46) =     37.23952  eV     1   --> A''            
     e( 47 - 47) =     37.33970  eV     1   --> A'             
     e( 48 - 48) =     37.61281  eV     1   --> A'             
     e( 49 - 49) =     38.89217  eV     1   --> A''            
     e( 50 - 50) =     39.40164  eV     1   --> A'             

 **************************************************************************

 **************************************************************************

                    xk=(   0.15000,   0.08660,   0.00000  )

     Band symmetry, C_s (m)     point group:

     e(  1 -  1) =   -114.31762  eV     1   --> A'             
     e(  2 -  2) =   -114.31677  eV     1   --> A'             
     e(  3 -  3) =    -68.65452  eV     1   --> A'             
     e(  4 -  4) =    -68.65266  eV     1   --> A'             
     e(  5 -  5) =    -68.64829  eV     1   --> A''            
     e(  6 -  6) =    -68.64795  eV     1   --> A'             
     e(  7 -  7) =    -68.64758  eV     1   --> A'             
     e(  8 -  8) =    -68.64711  eV     1   --> A''            
     e(  9 -  9) =     -9.10830  eV     1   --> A'             
     e( 10 - 10) =     -8.43015  eV     1   --> A'             
     e( 11 - 11) =      2.92938  eV     1   --> A'             
     e( 12 - 12) =      3.13230  eV     1   --> A''            
     e( 13 - 13) =      3.16636  eV     1   --> A'             
     e( 14 - 14) =      3.22241  eV     1   --> A'             
     e( 15 - 15) =      3.32012  eV     1   --> A'             
     e( 16 - 16) =      3.35830  eV     1   --> A''            
     e( 17 - 17) =      4.20834  eV     1   --> A'             
     e( 18 - 18) =      4.25686  eV     1   --> A''            
     e( 19 - 19) =      4.48406  eV     1   --> A''            
     e( 20 - 20) =      4.56627  eV     1   --> A'             
     e( 21 - 21) =      4.72800  eV     1   --> A'             
     e( 22 - 22) =      7.23920  eV     1   --> A'             
     e( 23 - 23) =      7.72507  eV     1   --> A''            
     e( 24 - 24) =      7.81215  eV     1   --> A'             
     e( 25 - 25) =      8.57463  eV     1   --> A'             
     e( 26 - 26) =      8.65931  eV     1   --> A''            
     e( 27 - 27) =     10.84072  eV     1   --> A'             
     e( 28 - 28) =     14.87011  eV     1   --> A'             
     e( 29 - 29) =     16.90362  eV     1   --> A'             
     e( 30 - 30) =     19.83840  eV     1   --> A'             
     e( 31 - 31) =     21.56461  eV     1   --> A'             
     e( 32 - 32) =     21.89434  eV     1   --> A''            
     e( 33 - 33) =     22.92010  eV     1   --> A'             
     e( 34 - 34) =     23.15556  eV     1   --> A''            
     e( 35 - 35) =     24.13942  eV     1   --> A'             
     e( 36 - 36) =     26.05964  eV     1   --> A''            
     e( 37 - 37) =     27.13090  eV     1   --> A'             
     e( 38 - 38) =     29.46206  eV     1   --> A'             
     e( 39 - 39) =     30.64760  eV     1   --> A'             
     e( 40 - 40) =     30.84135  eV     1   --> A''            
     e( 41 - 41) =     31.30430  eV     1   --> A'             
     e( 42 - 42) =     32.24868  eV     1   --> A'             
     e( 43 - 43) =     33.83189  eV     1   --> A''            
     e( 44 - 44) =     34.58654  eV     1   --> A'             
     e( 45 - 45) =     36.11858  eV     1   --> A'             
     e( 46 - 46) =     37.19884  eV     1   --> A'             
     e( 47 - 47) =     37.24761  eV     1   --> A''            
     e( 48 - 48) =     37.98492  eV     1   --> A'             
     e( 49 - 49) =     38.60632  eV     1   --> A''            
     e( 50 - 50) =     39.46124  eV     1   --> A'             

 **************************************************************************

 **************************************************************************

                    xk=(   0.17500,   0.10104,   0.00000  )

     Band symmetry, C_s (m)     point group:

     e(  1 -  1) =   -114.31755  eV     1   --> A'             
     e(  2 -  2) =   -114.31670  eV     1   --> A'             
     e(  3 -  3) =    -68.65408  eV     1   --> A'             
     e(  4 -  4) =    -68.65247  eV     1   --> A'             
     e(  5 -  5) =    -68.64830  eV     1   --> A''            
     e(  6 -  6) =    -68.64808  eV     1   --> A'             
     e(  7 -  7) =    -68.64757  eV     1   --> A'             
     e(  8 -  8) =    -68.64740  eV     1   --> A''            
     e(  9 -  9) =     -9.06641  eV     1   --> A'             
     e( 10 - 10) =     -8.41305  eV     1   --> A'             
     e( 11 - 11) =      2.89305  eV     1   --> A'             
     e( 12 - 12) =      3.15334  eV     1   --> A''            
     e( 13 - 13) =      3.16872  eV     1   --> A'             
     e( 14 - 14) =      3.24269  eV     1   --> A'             
     e( 15 - 15) =      3.38118  eV     1   --> A'             
     e( 16 - 16) =      3.39285  eV     1   --> A''            
     e( 17 - 17) =      4.19199  eV     1   --> A'             
     e( 18 - 18) =      4.25927  eV     1   --> A''            
     e( 19 - 19) =      4.48691  eV     1   --> A''            
     e( 20 - 20) =      4.59594  eV     1   --> A'             
     e( 21 - 21) =      4.72387  eV     1   --> A'             
     e( 22 - 22) =      7.00815  eV     1   --> A'             
     e( 23 - 23) =      7.62809  eV     1   --> A'             
     e( 24 - 24) =      7.63067  eV     1   --> A''            
     e( 25 - 25) =      8.51865  eV     1   --> A'             
     e( 26 - 26) =      8.60611  eV     1   --> A''            
     e( 27 - 27) =     11.12769  eV     1   --> A'             
     e( 28 - 28) =     15.11941  eV     1   --> A'             
     e( 29 - 29) =     16.89422  eV     1   --> A'             
     e( 30 - 30) =     19.44306  eV     1   --> A'             
     e( 31 - 31) =     21.24252  eV     1   --> A'             
     e( 32 - 32) =     21.95979  eV     1   --> A''            
     e( 33 - 33) =     22.75123  eV     1   --> A'             
     e( 34 - 34) =     23.14874  eV     1   --> A''            
     e( 35 - 35) =     24.01838  eV     1   --> A'             
     e( 36 - 36) =     26.06935  eV     1   --> A''            
     e( 37 - 37) =     27.10028  eV     1   --> A'             
     e( 38 - 38) =     29.78656  eV     1   --> A'             
     e( 39 - 39) =     30.94589  eV     1   --> A'             
     e( 40 - 40) =     31.40429  eV     1   --> A''            
     e( 41 - 41) =     31.67936  eV     1   --> A'             
     e( 42 - 42) =     32.31902  eV     1   --> A'             
     e( 43 - 43) =     33.91450  eV     1   --> A''            
     e( 44 - 44) =     35.27122  eV     1   --> A'             
     e( 45 - 45) =     35.89193  eV     1   --> A'             
     e( 46 - 46) =     37.05727  eV     1   --> A'             
     e( 47 - 47) =     37.24849  eV     1   --> A''            
     e( 48 - 48) =     38.32896  eV     1   --> A''            
     e( 49 - 49) =     38.33752  eV     1   --> A'             
     e( 50 - 50) =     39.62605  eV     1   --> A'             

 **************************************************************************

 **************************************************************************

                    xk=(   0.20000,   0.11547,   0.00000  )

     Band symmetry, C_s (m)     point group:

     e(  1 -  1) =   -114.31747  eV     1   --> A'             
     e(  2 -  2) =   -114.31677  eV     1   --> A'             
     e(  3 -  3) =    -68.65410  eV     1   --> A'             
     e(  4 -  4) =    -68.65225  eV     1   --> A'             
     e(  5 -  5) =    -68.64841  eV     1   --> A''            
     e(  6 -  6) =    -68.64831  eV     1   --> A'             
     e(  7 -  7) =    -68.64799  eV     1   --> A'             
     e(  8 -  8) =    -68.64750  eV     1   --> A''            
     e(  9 -  9) =     -9.02007  eV     1   --> A'             
     e( 10 - 10) =     -8.39503  eV     1   --> A'             
     e( 11 - 11) =      2.85723  eV     1   --> A'             
     e( 12 - 12) =      3.16419  eV     1   --> A'             
     e( 13 - 13) =      3.17538  eV     1   --> A''            
     e( 14 - 14) =      3.26883  eV     1   --> A'             
     e( 15 - 15) =      3.43157  eV     1   --> A''            
     e( 16 - 16) =      3.45234  eV     1   --> A'             
     e( 17 - 17) =      4.17483  eV     1   --> A'             
     e( 18 - 18) =      4.26390  eV     1   --> A''            
     e( 19 - 19) =      4.48985  eV     1   --> A''            
     e( 20 - 20) =      4.62291  eV     1   --> A'             
     e( 21 - 21) =      4.72699  eV     1   --> A'             
     e( 22 - 22) =      6.76916  eV     1   --> A'             
     e( 23 - 23) =      7.44614  eV     1   --> A'             
     e( 24 - 24) =      7.52805  eV     1   --> A''            
     e( 25 - 25) =      8.45374  eV     1   --> A'             
     e( 26 - 26) =      8.54757  eV     1   --> A''            
     e( 27 - 27) =     11.42113  eV     1   --> A'             
     e( 28 - 28) =     15.37139  eV     1   --> A'             
     e( 29 - 29) =     16.88142  eV     1   --> A'             
     e( 30 - 30) =     19.06453  eV     1   --> A'             
     e( 31 - 31) =     20.93536  eV     1   --> A'             
     e( 32 - 32) =     22.02831  eV     1   --> A''            
     e( 33 - 33) =     22.47730  eV     1   --> A'             
     e( 34 - 34) =     23.11239  eV     1   --> A''            
     e( 35 - 35) =     24.02927  eV     1   --> A'             
     e( 36 - 36) =     26.16156  eV     1   --> A''            
     e( 37 - 37) =     27.05052  eV     1   --> A'             
     e( 38 - 38) =     29.86416  eV     1   --> A'             
     e( 39 - 39) =     31.27827  eV     1   --> A'             
     e( 40 - 40) =     31.99130  eV     1   --> A''            
     e( 41 - 41) =     32.07482  eV     1   --> A'             
     e( 42 - 42) =     32.60259  eV     1   --> A'             
     e( 43 - 43) =     34.01299  eV     1   --> A''            
     e( 44 - 44) =     35.60603  eV     1   --> A'             
     e( 45 - 45) =     36.04304  eV     1   --> A'             
     e( 46 - 46) =     36.94596  eV     1   --> A'             
     e( 47 - 47) =     37.23816  eV     1   --> A''            
     e( 48 - 48) =     38.06667  eV     1   --> A''            
     e( 49 - 49) =     38.65924  eV     1   --> A'             
     e( 50 - 50) =     39.90158  eV     1   --> A'             

 **************************************************************************

 **************************************************************************

                    xk=(   0.22500,   0.12990,   0.00000  )

     Band symmetry, C_s (m)     point group:

     e(  1 -  1) =   -114.31736  eV     1   --> A'             
     e(  2 -  2) =   -114.31681  eV     1   --> A'             
     e(  3 -  3) =    -68.65427  eV     1   --> A'             
     e(  4 -  4) =    -68.65233  eV     1   --> A'             
     e(  5 -  5) =    -68.64850  eV     1   --> A''            
     e(  6 -  6) =    -68.64840  eV     1   --> A'             
     e(  7 -  7) =    -68.64791  eV     1   --> A'             
     e(  8 -  8) =    -68.64751  eV     1   --> A''            
     e(  9 -  9) =     -8.97018  eV     1   --> A'             
     e( 10 - 10) =     -8.37663  eV     1   --> A'             
     e( 11 - 11) =      2.82370  eV     1   --> A'             
     e( 12 - 12) =      3.15574  eV     1   --> A'             
     e( 13 - 13) =      3.19755  eV     1   --> A''            
     e( 14 - 14) =      3.30022  eV     1   --> A'             
     e( 15 - 15) =      3.47392  eV     1   --> A''            
     e( 16 - 16) =      3.52889  eV     1   --> A'             
     e( 17 - 17) =      4.15804  eV     1   --> A'             
     e( 18 - 18) =      4.27119  eV     1   --> A''            
     e( 19 - 19) =      4.49287  eV     1   --> A''            
     e( 20 - 20) =      4.63858  eV     1   --> A'             
     e( 21 - 21) =      4.74612  eV     1   --> A'             
     e( 22 - 22) =      6.52863  eV     1   --> A'             
     e( 23 - 23) =      7.26612  eV     1   --> A'             
     e( 24 - 24) =      7.41945  eV     1   --> A''            
     e( 25 - 25) =      8.38006  eV     1   --> A'             
     e( 26 - 26) =      8.48490  eV     1   --> A''            
     e( 27 - 27) =     11.71955  eV     1   --> A'             
     e( 28 - 28) =     15.61615  eV     1   --> A'             
     e( 29 - 29) =     16.86485  eV     1   --> A'             
     e( 30 - 30) =     18.70829  eV     1   --> A'             
     e( 31 - 31) =     20.65152  eV     1   --> A'             
     e( 32 - 32) =     22.09538  eV     1   --> A''            
     e( 33 - 33) =     22.16354  eV     1   --> A'             
     e( 34 - 34) =     23.05327  eV     1   --> A''            
     e( 35 - 35) =     24.11321  eV     1   --> A'             
     e( 36 - 36) =     26.32989  eV     1   --> A''            
     e( 37 - 37) =     26.99861  eV     1   --> A'             
     e( 38 - 38) =     29.71813  eV     1   --> A'             
     e( 39 - 39) =     31.64023  eV     1   --> A'             
     e( 40 - 40) =     32.49168  eV     1   --> A'             
     e( 41 - 41) =     32.59819  eV     1   --> A''            
     e( 42 - 42) =     32.99299  eV     1   --> A'             
     e( 43 - 43) =     34.12771  eV     1   --> A''            
     e( 44 - 44) =     35.50775  eV     1   --> A'             
     e( 45 - 45) =     36.66939  eV     1   --> A'             
     e( 46 - 46) =     36.89327  eV     1   --> A'             
     e( 47 - 47) =     37.21229  eV     1   --> A''            
     e( 48 - 48) =     37.82506  eV     1   --> A''            
     e( 49 - 49) =     38.93928  eV     1   --> A'             
     e( 50 - 50) =     40.32469  eV     1   --> A'             

 **************************************************************************

 **************************************************************************

                    xk=(   0.25000,   0.14434,   0.00000  )

     Band symmetry, C_s (m)     point group:

     e(  1 -  1) =   -114.31742  eV     1   --> A'             
     e(  2 -  2) =   -114.31682  eV     1   --> A'             
     e(  3 -  3) =    -68.65426  eV     1   --> A'             
     e(  4 -  4) =    -68.65242  eV     1   --> A'             
     e(  5 -  5) =    -68.64899  eV     1   --> A'             
     e(  6 -  7) =    -68.64858  eV     2   --> A'             
     e(  6 -  7) =    -68.64858  eV     2   --> A''            
     e(  8 -  8) =    -68.64721  eV     1   --> A''            
     e(  9 -  9) =     -8.91783  eV     1   --> A'             
     e( 10 - 10) =     -8.35853  eV     1   --> A'             
     e( 11 - 11) =      2.79405  eV     1   --> A'             
     e( 12 - 12) =      3.14524  eV     1   --> A'             
     e( 13 - 13) =      3.21907  eV     1   --> A''            
     e( 14 - 14) =      3.33562  eV     1   --> A'             
     e( 15 - 15) =      3.51922  eV     1   --> A''            
     e( 16 - 16) =      3.60671  eV     1   --> A'             
     e( 17 - 17) =      4.14362  eV     1   --> A'             
     e( 18 - 18) =      4.28142  eV     1   --> A''            
     e( 19 - 19) =      4.49597  eV     1   --> A''            
     e( 20 - 20) =      4.64139  eV     1   --> A'             
     e( 21 - 21) =      4.78277  eV     1   --> A'             
     e( 22 - 22) =      6.29214  eV     1   --> A'             
     e( 23 - 23) =      7.08817  eV     1   --> A'             
     e( 24 - 24) =      7.30708  eV     1   --> A''            
     e( 25 - 25) =      8.29806  eV     1   --> A'             
     e( 26 - 26) =      8.41954  eV     1   --> A''            
     e( 27 - 27) =     12.02083  eV     1   --> A'             
     e( 28 - 28) =     15.84114  eV     1   --> A'             
     e( 29 - 29) =     16.84303  eV     1   --> A'             
     e( 30 - 30) =     18.37862  eV     1   --> A'             
     e( 31 - 31) =     20.39666  eV     1   --> A'             
     e( 32 - 32) =     21.85648  eV     1   --> A'             
     e( 33 - 33) =     22.15465  eV     1   --> A''            
     e( 34 - 34) =     22.98439  eV     1   --> A''            
     e( 35 - 35) =     24.22586  eV     1   --> A'             
     e( 36 - 36) =     26.56277  eV     1   --> A''            
     e( 37 - 37) =     26.95701  eV     1   --> A'             
     e( 38 - 38) =     29.47388  eV     1   --> A'             
     e( 39 - 39) =     31.90728  eV     1   --> A'             
     e( 40 - 40) =     32.94769  eV     1   --> A'             
     e( 41 - 41) =     33.21947  eV     1   --> A''            
     e( 42 - 42) =     33.35690  eV     1   --> A'             
     e( 43 - 43) =     34.25822  eV     1   --> A''            
     e( 44 - 44) =     35.53855  eV     1   --> A'             
     e( 45 - 45) =     36.91510  eV     1   --> A'             
     e( 46 - 46) =     37.16730  eV     1   --> A''            
     e( 47 - 47) =     37.25953  eV     1   --> A'             
     e( 48 - 48) =     37.61015  eV     1   --> A''            
     e( 49 - 49) =     39.14660  eV     1   --> A'             
     e( 50 - 50) =     40.09919  eV     1   --> A'             

 **************************************************************************

 **************************************************************************

                    xk=(   0.27500,   0.15877,   0.00000  )

     Band symmetry, C_s (m)     point group:

     e(  1 -  1) =   -114.31718  eV     1   --> A'             
     e(  2 -  2) =   -114.31668  eV     1   --> A'             
     e(  3 -  3) =    -68.65406  eV     1   --> A'             
     e(  4 -  4) =    -68.65228  eV     1   --> A'             
     e(  5 -  6) =    -68.64850  eV     2   --> A'             
     e(  5 -  6) =    -68.64850  eV     2   --> A''            
     e(  7 -  7) =    -68.64828  eV     1   --> A'             
     e(  8 -  8) =    -68.64689  eV     1   --> A''            
     e(  9 -  9) =     -8.86372  eV     1   --> A'             
     e( 10 - 10) =     -8.34139  eV     1   --> A'             
     e( 11 - 11) =      2.77010  eV     1   --> A'             
     e( 12 - 12) =      3.13375  eV     1   --> A'             
     e( 13 - 13) =      3.23927  eV     1   --> A''            
     e( 14 - 14) =      3.37426  eV     1   --> A'             
     e( 15 - 15) =      3.56660  eV     1   --> A''            
     e( 16 - 16) =      3.68020  eV     1   --> A'             
     e( 17 - 17) =      4.13493  eV     1   --> A'             
     e( 18 - 18) =      4.29467  eV     1   --> A''            
     e( 19 - 19) =      4.49916  eV     1   --> A''            
     e( 20 - 20) =      4.63902  eV     1   --> A'             
     e( 21 - 21) =      4.82886  eV     1   --> A'             
     e( 22 - 22) =      6.06551  eV     1   --> A'             
     e( 23 - 23) =      6.91382  eV     1   --> A'             
     e( 24 - 24) =      7.19334  eV     1   --> A''            
     e( 25 - 25) =      8.20857  eV     1   --> A'             
     e( 26 - 26) =      8.35310  eV     1   --> A''            
     e( 27 - 27) =     12.32476  eV     1   --> A'             
     e( 28 - 28) =     16.03433  eV     1   --> A'             
     e( 29 - 29) =     16.81342  eV     1   --> A'             
     e( 30 - 30) =     18.08205  eV     1   --> A'             
     e( 31 - 31) =     20.17590  eV     1   --> A'             
     e( 32 - 32) =     21.58172  eV     1   --> A'             
     e( 33 - 33) =     22.19760  eV     1   --> A''            
     e( 34 - 34) =     22.92153  eV     1   --> A''            
     e( 35 - 35) =     24.34227  eV     1   --> A'             
     e( 36 - 36) =     26.84644  eV     1   --> A''            
     e( 37 - 37) =     26.93392  eV     1   --> A'             
     e( 38 - 38) =     29.20002  eV     1   --> A'             
     e( 39 - 39) =     32.05094  eV     1   --> A'             
     e( 40 - 40) =     33.32137  eV     1   --> A'             
     e( 41 - 41) =     33.67095  eV     1   --> A'             
     e( 42 - 42) =     33.84633  eV     1   --> A''            
     e( 43 - 43) =     34.40401  eV     1   --> A''            
     e( 44 - 44) =     35.79174  eV     1   --> A'             
     e( 45 - 45) =     37.02417  eV     1   --> A'             
     e( 46 - 46) =     37.09964  eV     1   --> A''            
     e( 47 - 47) =     37.43125  eV     1   --> A''            
     e( 48 - 48) =     37.78650  eV     1   --> A'             
     e( 49 - 49) =     39.14909  eV     1   --> A'             
     e( 50 - 50) =     39.91198  eV     1   --> A'             

 **************************************************************************

 **************************************************************************

                    xk=(   0.30000,   0.17321,   0.00000  )

     Band symmetry, C_s (m)     point group:

     e(  1 -  1) =   -114.31696  eV     1   --> A'             
     e(  2 -  2) =   -114.31671  eV     1   --> A'             
     e(  3 -  3) =    -68.65426  eV     1   --> A'             
     e(  4 -  4) =    -68.65203  eV     1   --> A'             
     e(  5 -  5) =    -68.64860  eV     1   --> A'             
     e(  6 -  6) =    -68.64834  eV     1   --> A''            
     e(  7 -  7) =    -68.64801  eV     1   --> A'             
     e(  8 -  8) =    -68.64664  eV     1   --> A''            
     e(  9 -  9) =     -8.80915  eV     1   --> A'             
     e( 10 - 10) =     -8.32593  eV     1   --> A'             
     e( 11 - 11) =      2.75297  eV     1   --> A'             
     e( 12 - 12) =      3.12142  eV     1   --> A'             
     e( 13 - 13) =      3.25756  eV     1   --> A''            
     e( 14 - 14) =      3.41549  eV     1   --> A'             
     e( 15 - 15) =      3.61496  eV     1   --> A''            
     e( 16 - 16) =      3.74098  eV     1   --> A'             
     e( 17 - 17) =      4.13695  eV     1   --> A'             
     e( 18 - 18) =      4.31079  eV     1   --> A''            
     e( 19 - 19) =      4.50247  eV     1   --> A''            
     e( 20 - 20) =      4.63774  eV     1   --> A'             
     e( 21 - 21) =      4.87623  eV     1   --> A'             
     e( 22 - 22) =      5.85475  eV     1   --> A'             
     e( 23 - 23) =      6.74411  eV     1   --> A'             
     e( 24 - 24) =      7.08054  eV     1   --> A''            
     e( 25 - 25) =      8.11282  eV     1   --> A'             
     e( 26 - 26) =      8.28713  eV     1   --> A''            
     e( 27 - 27) =     12.62857  eV     1   --> A'             
     e( 28 - 28) =     16.18203  eV     1   --> A'             
     e( 29 - 29) =     16.76934  eV     1   --> A'             
     e( 30 - 30) =     17.82588  eV     1   --> A'             
     e( 31 - 31) =     19.98910  eV     1   --> A'             
     e( 32 - 32) =     21.35464  eV     1   --> A'             
     e( 33 - 33) =     22.21506  eV     1   --> A''            
     e( 34 - 34) =     22.87972  eV     1   --> A''            
     e( 35 - 35) =     24.44659  eV     1   --> A'             
     e( 36 - 36) =     26.93505  eV     1   --> A'             
     e( 37 - 37) =     27.16767  eV     1   --> A''            
     e( 38 - 38) =     28.92729  eV     1   --> A'             
     e( 39 - 39) =     32.09877  eV     1   --> A'             
     e( 40 - 40) =     33.42594  eV     1   --> A'             
     e( 41 - 41) =     34.04410  eV     1   --> A'             
     e( 42 - 42) =     34.44876  eV     1   --> A''            
     e( 43 - 43) =     34.57387  eV     1   --> A''            
     e( 44 - 44) =     36.24171  eV     1   --> A'             
     e( 45 - 45) =     37.00547  eV     1   --> A''            
     e( 46 - 46) =     37.21435  eV     1   --> A'             
     e( 47 - 47) =     37.30678  eV     1   --> A''            
     e( 48 - 48) =     38.26328  eV     1   --> A'             
     e( 49 - 49) =     38.88869  eV     1   --> A'             
     e( 50 - 50) =     40.05713  eV     1   --> A'             

 **************************************************************************

 **************************************************************************

                    xk=(   0.32500,   0.18764,   0.00000  )

     Band symmetry, C_s (m)     point group:

     e(  1 -  1) =   -114.31700  eV     1   --> A'             
     e(  2 -  2) =   -114.31678  eV     1   --> A'             
     e(  3 -  3) =    -68.65424  eV     1   --> A'             
     e(  4 -  4) =    -68.65238  eV     1   --> A'             
     e(  5 -  5) =    -68.64921  eV     1   --> A'             
     e(  6 -  6) =    -68.64856  eV     1   --> A'             
     e(  7 -  7) =    -68.64817  eV     1   --> A''            
     e(  8 -  8) =    -68.64670  eV     1   --> A''            
     e(  9 -  9) =     -8.75550  eV     1   --> A'             
     e( 10 - 10) =     -8.31270  eV     1   --> A'             
     e( 11 - 11) =      2.74313  eV     1   --> A'             
     e( 12 - 12) =      3.10830  eV     1   --> A'             
     e( 13 - 13) =      3.27356  eV     1   --> A''            
     e( 14 - 14) =      3.45862  eV     1   --> A'             
     e( 15 - 15) =      3.66304  eV     1   --> A''            
     e( 16 - 16) =      3.78079  eV     1   --> A'             
     e( 17 - 17) =      4.15433  eV     1   --> A'             
     e( 18 - 18) =      4.32931  eV     1   --> A''            
     e( 19 - 19) =      4.50590  eV     1   --> A''            
     e( 20 - 20) =      4.64254  eV     1   --> A'             
     e( 21 - 21) =      4.91593  eV     1   --> A'             
     e( 22 - 22) =      5.66881  eV     1   --> A'             
     e( 23 - 23) =      6.58028  eV     1   --> A'             
     e( 24 - 24) =      6.97126  eV     1   --> A''            
     e( 25 - 25) =      8.01246  eV     1   --> A'             
     e( 26 - 26) =      8.22329  eV     1   --> A''            
     e( 27 - 27) =     12.92997  eV     1   --> A'             
     e( 28 - 28) =     16.27878  eV     1   --> A'             
     e( 29 - 29) =     16.69639  eV     1   --> A'             
     e( 30 - 30) =     17.62405  eV     1   --> A'             
     e( 31 - 31) =     19.83297  eV     1   --> A'             
     e( 32 - 32) =     21.18485  eV     1   --> A'             
     e( 33 - 33) =     22.20268  eV     1   --> A''            
     e( 34 - 34) =     22.86729  eV     1   --> A''            
     e( 35 - 35) =     24.52898  eV     1   --> A'             
     e( 36 - 36) =     26.96138  eV     1   --> A'             
     e( 37 - 37) =     27.51355  eV     1   --> A''            
     e( 38 - 38) =     28.67055  eV     1   --> A'             
     e( 39 - 39) =     32.08086  eV     1   --> A'             
     e( 40 - 40) =     33.38747  eV     1   --> A'             
     e( 41 - 41) =     34.36644  eV     1   --> A'             
     e( 42 - 42) =     34.70260  eV     1   --> A''            
     e( 43 - 43) =     35.05066  eV     1   --> A''            
     e( 44 - 44) =     36.75605  eV     1   --> A'             
     e( 45 - 45) =     36.88560  eV     1   --> A''            
     e( 46 - 46) =     37.27436  eV     1   --> A''            
     e( 47 - 47) =     37.46935  eV     1   --> A'             
     e( 48 - 48) =     38.56372  eV     1   --> A'             
     e( 49 - 49) =     38.78435  eV     1   --> A'             
     e( 50 - 50) =     40.36130  eV     1   --> A'             

 **************************************************************************

 **************************************************************************

                    xk=(   0.35000,   0.20207,   0.00000  )

     Band symmetry, C_s (m)     point group:

     e(  1 -  1) =   -114.31687  eV     1   --> A'             
     e(  2 -  2) =   -114.31672  eV     1   --> A'             
     e(  3 -  3) =    -68.65408  eV     1   --> A'             
     e(  4 -  4) =    -68.65224  eV     1   --> A'             
     e(  5 -  5) =    -68.64915  eV     1   --> A'             
     e(  6 -  6) =    -68.64833  eV     1   --> A'             
     e(  7 -  7) =    -68.64823  eV     1   --> A''            
     e(  8 -  8) =    -68.64677  eV     1   --> A''            
     e(  9 -  9) =     -8.70366  eV     1   --> A'             
     e( 10 - 10) =     -8.30217  eV     1   --> A'             
     e( 11 - 11) =      2.74154  eV     1   --> A'             
     e( 12 - 12) =      3.09435  eV     1   --> A'             
     e( 13 - 13) =      3.28710  eV     1   --> A''            
     e( 14 - 14) =      3.50294  eV     1   --> A'             
     e( 15 - 15) =      3.70938  eV     1   --> A''            
     e( 16 - 16) =      3.79675  eV     1   --> A'             
     e( 17 - 17) =      4.18556  eV     1   --> A'             
     e( 18 - 18) =      4.34949  eV     1   --> A''            
     e( 19 - 19) =      4.50942  eV     1   --> A''            
     e( 20 - 20) =      4.65813  eV     1   --> A'             
     e( 21 - 21) =      4.93481  eV     1   --> A'             
     e( 22 - 22) =      5.52115  eV     1   --> A'             
     e( 23 - 23) =      6.42586  eV     1   --> A'             
     e( 24 - 24) =      6.86810  eV     1   --> A''            
     e( 25 - 25) =      7.91019  eV     1   --> A'             
     e( 26 - 26) =      8.16336  eV     1   --> A''            
     e( 27 - 27) =     13.22806  eV     1   --> A'             
     e( 28 - 28) =     16.32802  eV     1   --> A'             
     e( 29 - 29) =     16.57790  eV     1   --> A'             
     e( 30 - 30) =     17.48919  eV     1   --> A'             
     e( 31 - 31) =     19.70332  eV     1   --> A'             
     e( 32 - 32) =     21.07677  eV     1   --> A'             
     e( 33 - 33) =     22.16619  eV     1   --> A''            
     e( 34 - 34) =     22.88085  eV     1   --> A''            
     e( 35 - 35) =     24.58564  eV     1   --> A'             
     e( 36 - 36) =     27.01112  eV     1   --> A'             
     e( 37 - 37) =     27.87174  eV     1   --> A''            
     e( 38 - 38) =     28.43936  eV     1   --> A'             
     e( 39 - 39) =     32.02291  eV     1   --> A'             
     e( 40 - 40) =     33.31644  eV     1   --> A'             
     e( 41 - 41) =     34.56292  eV     1   --> A'             
     e( 42 - 42) =     34.84904  eV     1   --> A''            
     e( 43 - 43) =     35.51568  eV     1   --> A''            
     e( 44 - 44) =     36.74994  eV     1   --> A''            
     e( 45 - 45) =     37.17023  eV     1   --> A'             
     e( 46 - 46) =     37.40053  eV     1   --> A''            
     e( 47 - 47) =     37.66212  eV     1   --> A'             
     e( 48 - 48) =     38.60888  eV     1   --> A'             
     e( 49 - 49) =     39.24701  eV     1   --> A'             
     e( 50 - 50) =     40.75977  eV     1   --> A'             

 **************************************************************************

 **************************************************************************

                    xk=(   0.37500,   0.21651,   0.00000  )

     Band symmetry, C_s (m)     point group:

     e(  1 -  1) =   -114.31701  eV     1   --> A'             
     e(  2 -  2) =   -114.31657  eV     1   --> A'             
     e(  3 -  3) =    -68.65370  eV     1   --> A'             
     e(  4 -  4) =    -68.65254  eV     1   --> A'             
     e(  5 -  5) =    -68.64928  eV     1   --> A'             
     e(  6 -  6) =    -68.64833  eV     1   --> A'             
     e(  7 -  7) =    -68.64802  eV     1   --> A''            
     e(  8 -  8) =    -68.64738  eV     1   --> A''            
     e(  9 -  9) =     -8.65519  eV     1   --> A'             
     e( 10 - 10) =     -8.29471  eV     1   --> A'             
     e( 11 - 11) =      2.74756  eV     1   --> A'             
     e( 12 - 12) =      3.07924  eV     1   --> A'             
     e( 13 - 13) =      3.29815  eV     1   --> A''            
     e( 14 - 14) =      3.54740  eV     1   --> A'             
     e( 15 - 15) =      3.75239  eV     1   --> A''            
     e( 16 - 16) =      3.79365  eV     1   --> A'             
     e( 17 - 17) =      4.22114  eV     1   --> A'             
     e( 18 - 18) =      4.37031  eV     1   --> A''            
     e( 19 - 19) =      4.51292  eV     1   --> A''            
     e( 20 - 20) =      4.68709  eV     1   --> A'             
     e( 21 - 21) =      4.91885  eV     1   --> A'             
     e( 22 - 22) =      5.42607  eV     1   --> A'             
     e( 23 - 23) =      6.28410  eV     1   --> A'             
     e( 24 - 24) =      6.77385  eV     1   --> A''            
     e( 25 - 25) =      7.80925  eV     1   --> A'             
     e( 26 - 26) =      8.10902  eV     1   --> A''            
     e( 27 - 27) =     13.51913  eV     1   --> A'             
     e( 28 - 28) =     16.34116  eV     1   --> A'             
     e( 29 - 29) =     16.41066  eV     1   --> A'             
     e( 30 - 30) =     17.41514  eV     1   --> A'             
     e( 31 - 31) =     19.59422  eV     1   --> A'             
     e( 32 - 32) =     21.02659  eV     1   --> A'             
     e( 33 - 33) =     22.11734  eV     1   --> A''            
     e( 34 - 34) =     22.90995  eV     1   --> A''            
     e( 35 - 35) =     24.61745  eV     1   --> A'             
     e( 36 - 36) =     27.07529  eV     1   --> A'             
     e( 37 - 37) =     28.22789  eV     1   --> A''            
     e( 38 - 38) =     28.23816  eV     1   --> A'             
     e( 39 - 39) =     31.94529  eV     1   --> A'             
     e( 40 - 40) =     33.25827  eV     1   --> A'             
     e( 41 - 41) =     34.61628  eV     1   --> A'             
     e( 42 - 42) =     34.95854  eV     1   --> A''            
     e( 43 - 43) =     35.81409  eV     1   --> A''            
     e( 44 - 44) =     36.61577  eV     1   --> A''            
     e( 45 - 45) =     37.41634  eV     1   --> A'             
     e( 46 - 46) =     37.61496  eV     1   --> A'             
     e( 47 - 47) =     37.75413  eV     1   --> A''            
     e( 48 - 48) =     39.11896  eV     1   --> A'             
     e( 49 - 49) =     39.77997  eV     1   --> A'             
     e( 50 - 50) =     41.16571  eV     1   -->   ?

 **************************************************************************

 **************************************************************************

                    xk=(   0.40000,   0.23094,   0.00000  )

     Band symmetry, C_s (m)     point group:

     e(  1 -  1) =   -114.31692  eV     1   --> A'             
     e(  2 -  2) =   -114.31664  eV     1   --> A'             
     e(  3 -  3) =    -68.65381  eV     1   --> A'             
     e(  4 -  4) =    -68.65254  eV     1   --> A'             
     e(  5 -  6) =    -68.64884  eV     2   -->   2 A'             
     e(  7 -  7) =    -68.64827  eV     1   --> A''            
     e(  8 -  8) =    -68.64741  eV     1   --> A''            
     e(  9 -  9) =     -8.61142  eV     1   --> A'             
     e( 10 - 10) =     -8.29036  eV     1   --> A'             
     e( 11 - 11) =      2.76062  eV     1   --> A'             
     e( 12 - 12) =      3.06251  eV     1   --> A'             
     e( 13 - 13) =      3.30682  eV     1   --> A''            
     e( 14 - 14) =      3.59049  eV     1   --> A'             
     e( 15 - 15) =      3.77953  eV     1   --> A'             
     e( 16 - 16) =      3.79039  eV     1   --> A''            
     e( 17 - 17) =      4.25119  eV     1   --> A'             
     e( 18 - 18) =      4.39049  eV     1   --> A''            
     e( 19 - 19) =      4.51625  eV     1   --> A''            
     e( 20 - 20) =      4.71972  eV     1   --> A'             
     e( 21 - 21) =      4.87929  eV     1   --> A'             
     e( 22 - 22) =      5.37971  eV     1   --> A'             
     e( 23 - 23) =      6.16136  eV     1   --> A'             
     e( 24 - 24) =      6.69125  eV     1   --> A''            
     e( 25 - 25) =      7.71407  eV     1   --> A'             
     e( 26 - 26) =      8.06193  eV     1   --> A''            
     e( 27 - 27) =     13.80107  eV     1   --> A'             
     e( 28 - 28) =     16.21056  eV     1   --> A'             
     e( 29 - 29) =     16.33334  eV     1   --> A'             
     e( 30 - 30) =     17.37852  eV     1   --> A'             
     e( 31 - 31) =     19.50224  eV     1   --> A'             
     e( 32 - 32) =     21.02229  eV     1   --> A'             
     e( 33 - 33) =     22.06714  eV     1   --> A''            
     e( 34 - 34) =     22.94409  eV     1   --> A''            
     e( 35 - 35) =     24.62965  eV     1   --> A'             
     e( 36 - 36) =     27.14346  eV     1   --> A'             
     e( 37 - 37) =     28.07376  eV     1   --> A'             
     e( 38 - 38) =     28.56633  eV     1   --> A''            
     e( 39 - 39) =     31.86361  eV     1   --> A'             
     e( 40 - 40) =     33.23746  eV     1   --> A'             
     e( 41 - 41) =     34.54181  eV     1   --> A'             
     e( 42 - 42) =     35.00593  eV     1   --> A''            
     e( 43 - 43) =     35.97664  eV     1   --> A''            
     e( 44 - 44) =     36.50232  eV     1   --> A''            
     e( 45 - 45) =     37.38777  eV     1   --> A'             
     e( 46 - 46) =     37.68274  eV     1   --> A'             
     e( 47 - 47) =     38.31399  eV     1   --> A''            
     e( 48 - 48) =     39.82422  eV     1   --> A'             
     e( 49 - 49) =     40.37250  eV     1   --> A'             
     e( 50 - 50) =     40.75708  eV     1   --> A''            

 **************************************************************************

 **************************************************************************

                    xk=(   0.42500,   0.24537,   0.00000  )

     Band symmetry, C_s (m)     point group:

     e(  1 -  1) =   -114.31691  eV     1   --> A'             
     e(  2 -  2) =   -114.31665  eV     1   --> A'             
     e(  3 -  3) =    -68.65379  eV     1   --> A'             
     e(  4 -  4) =    -68.65259  eV     1   --> A'             
     e(  5 -  5) =    -68.64903  eV     1   --> A'             
     e(  6 -  6) =    -68.64872  eV     1   --> A'             
     e(  7 -  7) =    -68.64847  eV     1   --> A''            
     e(  8 -  8) =    -68.64750  eV     1   --> A''            
     e(  9 -  9) =     -8.57408  eV     1   --> A'             
     e( 10 - 10) =     -8.28879  eV     1   --> A'             
     e( 11 - 11) =      2.77876  eV     1   --> A'             
     e( 12 - 12) =      3.04458  eV     1   --> A'             
     e( 13 - 13) =      3.31329  eV     1   --> A''            
     e( 14 - 14) =      3.63018  eV     1   --> A'             
     e( 15 - 15) =      3.76119  eV     1   --> A'             
     e( 16 - 16) =      3.82183  eV     1   --> A''            
     e( 17 - 17) =      4.27172  eV     1   --> A'             
     e( 18 - 18) =      4.40857  eV     1   --> A''            
     e( 19 - 19) =      4.51916  eV     1   --> A''            
     e( 20 - 20) =      4.70994  eV     1   --> A'             
     e( 21 - 21) =      4.88340  eV     1   --> A'             
     e( 22 - 22) =      5.35253  eV     1   --> A'             
     e( 23 - 23) =      6.06476  eV     1   --> A'             
     e( 24 - 24) =      6.62317  eV     1   --> A''            
     e( 25 - 25) =      7.63002  eV     1   --> A'             
     e( 26 - 26) =      8.02358  eV     1   --> A''            
     e( 27 - 27) =     14.06747  eV     1   --> A'             
     e( 28 - 28) =     15.99890  eV     1   --> A'             
     e( 29 - 29) =     16.31582  eV     1   --> A'             
     e( 30 - 30) =     17.36066  eV     1   --> A'             
     e( 31 - 31) =     19.42802  eV     1   --> A'             
     e( 32 - 32) =     21.04622  eV     1   --> A'             
     e( 33 - 33) =     22.02281  eV     1   --> A''            
     e( 34 - 34) =     22.97622  eV     1   --> A''            
     e( 35 - 35) =     24.62936  eV     1   --> A'             
     e( 36 - 36) =     27.20279  eV     1   --> A'             
     e( 37 - 37) =     27.94881  eV     1   --> A'             
     e( 38 - 38) =     28.86730  eV     1   --> A''            
     e( 39 - 39) =     31.78987  eV     1   --> A'             
     e( 40 - 40) =     33.26715  eV     1   --> A'             
     e( 41 - 41) =     34.37306  eV     1   --> A'             
     e( 42 - 42) =     34.98262  eV     1   --> A''            
     e( 43 - 43) =     36.07850  eV     1   --> A''            
     e( 44 - 44) =     36.43010  eV     1   --> A''            
     e( 45 - 45) =     37.27361  eV     1   --> A'             
     e( 46 - 46) =     37.80858  eV     1   --> A'             
     e( 47 - 47) =     38.99801  eV     1   --> A''            
     e( 48 - 48) =     40.41255  eV     1   --> A''            
     e( 49 - 49) =     40.54474  eV     1   --> A'             
     e( 50 - 50) =     41.01503  eV     1   --> A'             

 **************************************************************************

 **************************************************************************

                    xk=(   0.45000,   0.25981,   0.00000  )

     Band symmetry, C_s (m)     point group:

     e(  1 -  1) =   -114.31686  eV     1   --> A'             
     e(  2 -  2) =   -114.31665  eV     1   --> A'             
     e(  3 -  3) =    -68.65380  eV     1   --> A'             
     e(  4 -  4) =    -68.65272  eV     1   --> A'             
     e(  5 -  5) =    -68.64900  eV     1   --> A'             
     e(  6 -  6) =    -68.64862  eV     1   --> A'             
     e(  7 -  7) =    -68.64850  eV     1   --> A''            
     e(  8 -  8) =    -68.64748  eV     1   --> A''            
     e(  9 -  9) =     -8.54504  eV     1   --> A'             
     e( 10 - 10) =     -8.28921  eV     1   --> A'             
     e( 11 - 11) =      2.79875  eV     1   --> A'             
     e( 12 - 12) =      3.02678  eV     1   --> A'             
     e( 13 - 13) =      3.31773  eV     1   --> A''            
     e( 14 - 14) =      3.66370  eV     1   --> A'             
     e( 15 - 15) =      3.74337  eV     1   --> A'             
     e( 16 - 16) =      3.84536  eV     1   --> A''            
     e( 17 - 17) =      4.28386  eV     1   --> A'             
     e( 18 - 18) =      4.42302  eV     1   --> A''            
     e( 19 - 19) =      4.52142  eV     1   --> A''            
     e( 20 - 20) =      4.65832  eV     1   --> A'             
     e( 21 - 21) =      4.94788  eV     1   --> A'             
     e( 22 - 22) =      5.31652  eV     1   --> A'             
     e( 23 - 23) =      6.00029  eV     1   --> A'             
     e( 24 - 24) =      6.57226  eV     1   --> A''            
     e( 25 - 25) =      7.56326  eV     1   --> A'             
     e( 26 - 26) =      7.99519  eV     1   --> A''            
     e( 27 - 27) =     14.30663  eV     1   --> A'             
     e( 28 - 28) =     15.79522  eV     1   --> A'             
     e( 29 - 29) =     16.29802  eV     1   --> A'             
     e( 30 - 30) =     17.35182  eV     1   --> A'             
     e( 31 - 31) =     19.37334  eV     1   --> A'             
     e( 32 - 32) =     21.07960  eV     1   --> A'             
     e( 33 - 33) =     21.98872  eV     1   --> A''            
     e( 34 - 34) =     23.00181  eV     1   --> A''            
     e( 35 - 35) =     24.62349  eV     1   --> A'             
     e( 36 - 36) =     27.24465  eV     1   --> A'             
     e( 37 - 37) =     27.86472  eV     1   --> A'             
     e( 38 - 38) =     29.10838  eV     1   --> A''            
     e( 39 - 39) =     31.73204  eV     1   --> A'             
     e( 40 - 40) =     33.35365  eV     1   --> A'             
     e( 41 - 41) =     34.15062  eV     1   --> A'             
     e( 42 - 42) =     34.91589  eV     1   --> A''            
     e( 43 - 43) =     36.13497  eV     1   --> A''            
     e( 44 - 44) =     36.41856  eV     1   --> A''            
     e( 45 - 45) =     37.19012  eV     1   --> A'             
     e( 46 - 46) =     37.90024  eV     1   --> A'             
     e( 47 - 47) =     39.72121  eV     1   --> A''            
     e( 48 - 48) =     40.17804  eV     1   --> A''            
     e( 49 - 49) =     41.22092  eV     1   --> A'             
     e( 50 - 50) =     41.64301  eV     1   --> A'             

 **************************************************************************

 **************************************************************************

                    xk=(   0.47500,   0.27424,   0.00000  )

     Band symmetry, C_s (m)     point group:

     e(  1 -  1) =   -114.31685  eV     1   --> A'             
     e(  2 -  2) =   -114.31662  eV     1   --> A'             
     e(  3 -  3) =    -68.65381  eV     1   --> A'             
     e(  4 -  4) =    -68.65273  eV     1   --> A'             
     e(  5 -  5) =    -68.64908  eV     1   --> A'             
     e(  6 -  7) =    -68.64853  eV     2   --> A'             
     e(  6 -  7) =    -68.64853  eV     2   --> A''            
     e(  8 -  8) =    -68.64747  eV     1   --> A''            
     e(  9 -  9) =     -8.52641  eV     1   --> A'             
     e( 10 - 10) =     -8.29035  eV     1   --> A'             
     e( 11 - 11) =      2.81531  eV     1   --> A'             
     e( 12 - 12) =      3.01241  eV     1   --> A'             
     e( 13 - 13) =      3.32032  eV     1   --> A''            
     e( 14 - 14) =      3.68803  eV     1   --> A'             
     e( 15 - 15) =      3.72923  eV     1   --> A'             
     e( 16 - 16) =      3.85990  eV     1   --> A''            
     e( 17 - 17) =      4.29008  eV     1   --> A'             
     e( 18 - 18) =      4.43240  eV     1   --> A''            
     e( 19 - 19) =      4.52284  eV     1   --> A''            
     e( 20 - 20) =      4.61519  eV     1   --> A'             
     e( 21 - 21) =      5.02496  eV     1   --> A'             
     e( 22 - 22) =      5.26551  eV     1   --> A'             
     e( 23 - 23) =      5.96672  eV     1   --> A'             
     e( 24 - 24) =      6.54071  eV     1   --> A''            
     e( 25 - 25) =      7.51998  eV     1   --> A'             
     e( 26 - 26) =      7.97775  eV     1   --> A''            
     e( 27 - 27) =     14.49134  eV     1   --> A'             
     e( 28 - 28) =     15.63074  eV     1   --> A'             
     e( 29 - 29) =     16.28534  eV     1   --> A'             
     e( 30 - 30) =     17.34728  eV     1   --> A'             
     e( 31 - 31) =     19.33975  eV     1   --> A'             
     e( 32 - 32) =     21.10657  eV     1   --> A'             
     e( 33 - 33) =     21.96743  eV     1   --> A''            
     e( 34 - 34) =     23.01808  eV     1   --> A''            
     e( 35 - 35) =     24.61763  eV     1   --> A'             
     e( 36 - 36) =     27.26691  eV     1   --> A'             
     e( 37 - 37) =     27.81882  eV     1   --> A'             
     e( 38 - 38) =     29.26595  eV     1   --> A''            
     e( 39 - 39) =     31.69537  eV     1   --> A'             
     e( 40 - 40) =     33.49612  eV     1   --> A'             
     e( 41 - 41) =     33.91227  eV     1   --> A'             
     e( 42 - 42) =     34.85120  eV     1   --> A''            
     e( 43 - 43) =     36.14759  eV     1   --> A''            
     e( 44 - 44) =     36.45030  eV     1   --> A''            
     e( 45 - 45) =     37.14160  eV     1   --> A'             
     e( 46 - 46) =     37.95504  eV     1   --> A'             
     e( 47 - 47) =     39.90621  eV     1   --> A''            
     e( 48 - 48) =     40.62390  eV     1   --> A''            
     e( 49 - 49) =     41.81141  eV     1   -->   ?
     e( 50 - 50) =     42.10768  eV     1   -->   ?

 **************************************************************************

 **************************************************************************

                    xk=(   0.50000,   0.28868,   0.00000  )

     zone border point and non-symmorphic group 
     symmetry decomposition not available

 **************************************************************************

 **************************************************************************

                    xk=(   0.50833,   0.27424,   0.00000  )

     zone border point and non-symmorphic group 
     symmetry decomposition not available

 **************************************************************************

 **************************************************************************

                    xk=(   0.51667,   0.25981,   0.00000  )

     zone border point and non-symmorphic group 
     symmetry decomposition not available

 **************************************************************************

 **************************************************************************

                    xk=(   0.52500,   0.24537,   0.00000  )

     zone border point and non-symmorphic group 
     symmetry decomposition not available

 **************************************************************************

 **************************************************************************

                    xk=(   0.53333,   0.23094,   0.00000  )

     zone border point and non-symmorphic group 
     symmetry decomposition not available

 **************************************************************************

 **************************************************************************

                    xk=(   0.54167,   0.21651,   0.00000  )

     zone border point and non-symmorphic group 
     symmetry decomposition not available

 **************************************************************************

 **************************************************************************

                    xk=(   0.55000,   0.20207,   0.00000  )

     zone border point and non-symmorphic group 
     symmetry decomposition not available

 **************************************************************************

 **************************************************************************

                    xk=(   0.55833,   0.18764,   0.00000  )

     zone border point and non-symmorphic group 
     symmetry decomposition not available

 **************************************************************************

 **************************************************************************

                    xk=(   0.56667,   0.17321,   0.00000  )

     zone border point and non-symmorphic group 
     symmetry decomposition not available

 **************************************************************************

 **************************************************************************

                    xk=(   0.57500,   0.15877,   0.00000  )

     zone border point and non-symmorphic group 
     symmetry decomposition not available

 **************************************************************************

 **************************************************************************

                    xk=(   0.58333,   0.14434,   0.00000  )

     zone border point and non-symmorphic group 
     symmetry decomposition not available

 **************************************************************************

 **************************************************************************

                    xk=(   0.59167,   0.12990,   0.00000  )

     zone border point and non-symmorphic group 
     symmetry decomposition not available

 **************************************************************************

 **************************************************************************

                    xk=(   0.60000,   0.11547,   0.00000  )

     zone border point and non-symmorphic group 
     symmetry decomposition not available

 **************************************************************************

 **************************************************************************

                    xk=(   0.60833,   0.10104,   0.00000  )

     zone border point and non-symmorphic group 
     symmetry decomposition not available

 **************************************************************************

 **************************************************************************

                    xk=(   0.61667,   0.08660,   0.00000  )

     zone border point and non-symmorphic group 
     symmetry decomposition not available

 **************************************************************************

 **************************************************************************

                    xk=(   0.62500,   0.07217,   0.00000  )

     zone border point and non-symmorphic group 
     symmetry decomposition not available

 **************************************************************************

 **************************************************************************

                    xk=(   0.63333,   0.05774,   0.00000  )

     zone border point and non-symmorphic group 
     symmetry decomposition not available

 **************************************************************************

 **************************************************************************

                    xk=(   0.64167,   0.04330,   0.00000  )

     zone border point and non-symmorphic group 
     symmetry decomposition not available

 **************************************************************************

 **************************************************************************

                    xk=(   0.65000,   0.02887,   0.00000  )

     zone border point and non-symmorphic group 
     symmetry decomposition not available

 **************************************************************************

 **************************************************************************

                    xk=(   0.65833,   0.01443,   0.00000  )

     zone border point and non-symmorphic group 
     symmetry decomposition not available

 **************************************************************************

 **************************************************************************

                    xk=(   0.66667,   0.00000,   0.00000  )

     zone border point and non-symmorphic group 
     symmetry decomposition not available

 **************************************************************************

 **************************************************************************

                    xk=(   0.63333,   0.00000,   0.00000  )

     point group C_s (m)    
     there are  2 classes
     the character table:

       E     s    
A'     1.00  1.00
A''    1.00 -1.00

     the symmetry operations in each class and the name of the first element:

     E        1
                                                                 
     s        2
                                                                 

     Band symmetry, C_s (m)     point group:

     e(  1 -  1) =   -114.31664  eV     1   --> A''            
     e(  2 -  2) =   -114.31652  eV     1   --> A'             
     e(  3 -  3) =    -68.65321  eV     1   --> A''            
     e(  4 -  4) =    -68.65268  eV     1   --> A'             
     e(  5 -  5) =    -68.64901  eV     1   --> A''            
     e(  6 -  6) =    -68.64875  eV     1   --> A'             
     e(  7 -  7) =    -68.64840  eV     1   --> A''            
     e(  8 -  8) =    -68.64829  eV     1   --> A'             
     e(  9 -  9) =     -8.37429  eV     1   --> A'             
     e( 10 - 10) =     -8.32947  eV     1   --> A''            
[...]

 **************************************************************************

                    xk=(   0.03333,   0.00000,   0.30997  )

     Band symmetry, C_s (m)     point group:

     e(  1 -  2) =   -114.31694  eV     2   --> A'             
     e(  1 -  2) =   -114.31694  eV     2   --> A''            
     e(  3 -  4) =    -68.65416  eV     2   --> A'             
     e(  3 -  4) =    -68.65416  eV     2   --> A''            
     e(  5 -  8) =    -68.64666  eV     4   -->   2 A'             
     e(  5 -  8) =    -68.64666  eV     4   -->   2 A''            
     e(  9 - 10) =     -8.86595  eV     2   --> A'             
     e(  9 - 10) =     -8.86595  eV     2   --> A''            
     e( 11 - 12) =      2.83528  eV     2   --> A'             
     e( 11 - 12) =      2.83528  eV     2   --> A''            
     e( 13 - 14) =      3.13807  eV     2   --> A'             
     e( 13 - 14) =      3.13807  eV     2   --> A''            
     e( 15 - 16) =      3.13900  eV     2   --> A'             
     e( 15 - 16) =      3.13900  eV     2   --> A''            
     e( 17 - 18) =      4.38893  eV     2   --> A'             
     e( 17 - 18) =      4.38893  eV     2   --> A''            
     e( 19 - 20) =      4.38907  eV     2   --> A'             
     e( 19 - 20) =      4.38907  eV     2   --> A''            
     e( 21 - 22) =      6.54487  eV     2   --> A'             
     e( 21 - 22) =      6.54487  eV     2   --> A''            
     e( 23 - 24) =      8.39567  eV     2   --> A'             
     e( 23 - 24) =      8.39567  eV     2   --> A''            
     e( 25 - 26) =      8.41282  eV     2   --> A'             
     e( 25 - 26) =      8.41282  eV     2   --> A''            
     e( 27 - 28) =     12.24689  eV     2   --> A'             
     e( 27 - 28) =     12.24689  eV     2   --> A''            
     e( 29 - 30) =     18.80727  eV     2   --> A'             
     e( 29 - 30) =     18.80727  eV     2   --> A''            
     e( 31 - 32) =     21.90232  eV     2   --> A'             
     e( 31 - 32) =     21.90232  eV     2   --> A''            
     e( 33 - 34) =     21.97981  eV     2   --> A'             
     e( 33 - 34) =     21.97981  eV     2   --> A''            
     e( 35 - 36) =     26.96269  eV     2   --> A'             
     e( 35 - 36) =     26.96269  eV     2   --> A''            
     e( 37 - 38) =     28.92363  eV     2   --> A'             
     e( 37 - 38) =     28.92363  eV     2   --> A''            
     e( 39 - 40) =     28.94114  eV     2   --> A'             
     e( 39 - 40) =     28.94114  eV     2   --> A''            
     e( 41 - 42) =     33.03904  eV     2   --> A'             
     e( 41 - 42) =     33.03904  eV     2   --> A''            
     e( 43 - 44) =     33.73185  eV     2   --> A'             
     e( 43 - 44) =     33.73185  eV     2   --> A''            
     e( 45 - 46) =     33.97346  eV     2   --> A'             
     e( 45 - 46) =     33.97346  eV     2   --> A''            
     e( 47 - 48) =     37.28352  eV     2   --> A'             
     e( 47 - 48) =     37.28352  eV     2   --> A''            
     e( 49 - 49) =     40.58770  eV     1   -->   ?
     e( 50 - 50) =     40.62430  eV     1   -->   ?

 **************************************************************************

 **************************************************************************

                    xk=(   0.00000,   0.00000,   0.30997  )

     point group C_6v (6mm) 
     there are  6 classes
     the character table:

       E     2C6   2C3   C2    3s_v  3s_d 
A_1    1.00  1.00  1.00  1.00  1.00  1.00
A_2    1.00  1.00  1.00  1.00 -1.00 -1.00
B_1    1.00 -1.00  1.00 -1.00  1.00 -1.00
B_2    1.00 -1.00  1.00 -1.00 -1.00  1.00
E_1    2.00  1.00 -1.00 -2.00  0.00  0.00
E_2    2.00 -1.00 -1.00  2.00  0.00  0.00

     the symmetry operations in each class and the name of the first element:

     E        1
                                                                 
     2C6      3    4
                                                                 
     2C3      5    6
                                                                 
     C2       2
                                                                 
     3s_v     8   12   11
                                                                 
     3s_d     7    9   10
                                                                 

     Band symmetry, C_6v (6mm)  point group:

     e(  1 -  2) =   -114.31694  eV     2   --> A_1            
     e(  1 -  2) =   -114.31694  eV     2   --> B_1            
     e(  3 -  4) =    -68.65413  eV     2   --> A_1            
     e(  3 -  4) =    -68.65413  eV     2   --> B_1            
     e(  5 -  8) =    -68.64664  eV     4   --> E_1            
     e(  5 -  8) =    -68.64664  eV     4   --> E_2            
     e(  9 - 10) =     -8.86961  eV     2   --> A_1            
     e(  9 - 10) =     -8.86961  eV     2   --> B_1            
     e( 11 - 12) =      2.83802  eV     2   --> A_1            
     e( 11 - 12) =      2.83802  eV     2   --> B_1            
     e( 13 - 16) =      3.13562  eV     4   --> E_1            
     e( 13 - 16) =      3.13562  eV     4   --> E_2            
     e( 17 - 20) =      4.38914  eV     4   --> E_1            
     e( 17 - 20) =      4.38914  eV     4   --> E_2            
     e( 21 - 22) =      6.54445  eV     2   --> A_1            
     e( 21 - 22) =      6.54445  eV     2   --> B_1            
     e( 23 - 26) =      8.42167  eV     4   --> E_1            
     e( 23 - 26) =      8.42167  eV     4   --> E_2            
     e( 27 - 28) =     12.21880  eV     2   --> A_1            
     e( 27 - 28) =     12.21880  eV     2   --> B_1            
     e( 29 - 30) =     18.80775  eV     2   --> A_1            
     e( 29 - 30) =     18.80775  eV     2   --> B_1            
     e( 31 - 34) =     21.97208  eV     4   --> E_1            
     e( 31 - 34) =     21.97208  eV     4   --> E_2            
     e( 35 - 36) =     26.91431  eV     2   --> A_1            
     e( 35 - 36) =     26.91431  eV     2   --> B_1            
     e( 37 - 40) =     28.93005  eV     4   --> E_1            
     e( 37 - 40) =     28.93005  eV     4   --> E_2            
     e( 41 - 42) =     33.26648  eV     2   --> A_1            
     e( 41 - 42) =     33.26648  eV     2   --> B_1            
     e( 43 - 46) =     33.70159  eV     4   --> E_1            
     e( 43 - 46) =     33.70159  eV     4   --> E_2            
     e( 47 - 48) =     37.22112  eV     2   --> A_1            
     e( 47 - 48) =     37.22112  eV     2   --> B_1            
     e( 49 - 50) =     40.63316  eV     2   -->   ?

 **************************************************************************

 **************************************************************************

                    xk=(   0.50000,   0.28868,   0.30997  )

     zone border point and non-symmorphic group 
     symmetry decomposition not available

 **************************************************************************

 **************************************************************************

                    xk=(   0.50000,   0.28868,   0.29447  )

     zone border point and non-symmorphic group 
     symmetry decomposition not available

 **************************************************************************

 **************************************************************************

                    xk=(   0.50000,   0.28868,   0.27897  )

     zone border point and non-symmorphic group 
     symmetry decomposition not available

 **************************************************************************

 **************************************************************************

                    xk=(   0.50000,   0.28868,   0.26347  )

     zone border point and non-symmorphic group 
     symmetry decomposition not available

 **************************************************************************

 **************************************************************************

                    xk=(   0.50000,   0.28868,   0.24797  )

     zone border point and non-symmorphic group 
     symmetry decomposition not available

 **************************************************************************

 **************************************************************************

                    xk=(   0.50000,   0.28868,   0.23248  )

     zone border point and non-symmorphic group 
     symmetry decomposition not available

 **************************************************************************

 **************************************************************************

                    xk=(   0.50000,   0.28868,   0.21698  )

     zone border point and non-symmorphic group 
     symmetry decomposition not available

 **************************************************************************

 **************************************************************************

                    xk=(   0.50000,   0.28868,   0.20148  )

     zone border point and non-symmorphic group 
     symmetry decomposition not available

 **************************************************************************

 **************************************************************************

                    xk=(   0.50000,   0.28868,   0.18598  )

     zone border point and non-symmorphic group 
     symmetry decomposition not available

 **************************************************************************

 **************************************************************************

                    xk=(   0.50000,   0.28868,   0.17048  )

     zone border point and non-symmorphic group 
     symmetry decomposition not available

 **************************************************************************

 **************************************************************************

                    xk=(   0.50000,   0.28868,   0.15498  )

     zone border point and non-symmorphic group 
     symmetry decomposition not available

 **************************************************************************

 **************************************************************************

                    xk=(   0.50000,   0.28868,   0.13949  )

     zone border point and non-symmorphic group 
     symmetry decomposition not available

 **************************************************************************

 **************************************************************************

                    xk=(   0.50000,   0.28868,   0.12399  )

     zone border point and non-symmorphic group 
     symmetry decomposition not available

 **************************************************************************

 **************************************************************************

                    xk=(   0.50000,   0.28868,   0.10849  )

     zone border point and non-symmorphic group 
     symmetry decomposition not available

 **************************************************************************

 **************************************************************************

                    xk=(   0.50000,   0.28868,   0.09299  )

     zone border point and non-symmorphic group 
     symmetry decomposition not available

 **************************************************************************

 **************************************************************************

                    xk=(   0.50000,   0.28868,   0.07749  )

     zone border point and non-symmorphic group 
     symmetry decomposition not available

 **************************************************************************

 **************************************************************************

                    xk=(   0.50000,   0.28868,   0.06199  )

     zone border point and non-symmorphic group 
     symmetry decomposition not available

 **************************************************************************

 **************************************************************************

                    xk=(   0.50000,   0.28868,   0.04650  )

     zone border point and non-symmorphic group 
     symmetry decomposition not available

 **************************************************************************

 **************************************************************************

                    xk=(   0.50000,   0.28868,   0.03100  )

     zone border point and non-symmorphic group 
     symmetry decomposition not available

 **************************************************************************

 **************************************************************************

                    xk=(   0.50000,   0.28868,   0.01550  )

     zone border point and non-symmorphic group 
     symmetry decomposition not available

 **************************************************************************

 **************************************************************************

                    xk=(   0.50000,   0.28868,   0.00000  )

     zone border point and non-symmorphic group 
     symmetry decomposition not available

 **************************************************************************

 **************************************************************************

                    xk=(   0.66667,  -0.00000,   0.30997  )

     zone border point and non-symmorphic group 
     symmetry decomposition not available

 **************************************************************************

 **************************************************************************

                    xk=(   0.66667,   0.00000,   0.29447  )

     zone border point and non-symmorphic group 
     symmetry decomposition not available

 **************************************************************************

 **************************************************************************

                    xk=(   0.66667,   0.00000,   0.27897  )

     zone border point and non-symmorphic group 
     symmetry decomposition not available

 **************************************************************************

 **************************************************************************

                    xk=(   0.66667,   0.00000,   0.26347  )

     zone border point and non-symmorphic group 
     symmetry decomposition not available

 **************************************************************************

 **************************************************************************

                    xk=(   0.66667,   0.00000,   0.24797  )

     zone border point and non-symmorphic group 
     symmetry decomposition not available

 **************************************************************************

 **************************************************************************

                    xk=(   0.66667,   0.00000,   0.23248  )

     zone border point and non-symmorphic group 
     symmetry decomposition not available

 **************************************************************************

 **************************************************************************

                    xk=(   0.66667,   0.00000,   0.21698  )

     zone border point and non-symmorphic group 
     symmetry decomposition not available

 **************************************************************************

 **************************************************************************

                    xk=(   0.66667,   0.00000,   0.20148  )

     zone border point and non-symmorphic group 
     symmetry decomposition not available

 **************************************************************************

 **************************************************************************

                    xk=(   0.66667,   0.00000,   0.18598  )

     zone border point and non-symmorphic group 
     symmetry decomposition not available

 **************************************************************************

 **************************************************************************

                    xk=(   0.66667,   0.00000,   0.17048  )

     zone border point and non-symmorphic group 
     symmetry decomposition not available

 **************************************************************************

 **************************************************************************

                    xk=(   0.66667,   0.00000,   0.15498  )

     zone border point and non-symmorphic group 
     symmetry decomposition not available

 **************************************************************************

 **************************************************************************

                    xk=(   0.66667,   0.00000,   0.13949  )

     zone border point and non-symmorphic group 
     symmetry decomposition not available

 **************************************************************************

 **************************************************************************

                    xk=(   0.66667,   0.00000,   0.12399  )

     zone border point and non-symmorphic group 
     symmetry decomposition not available

 **************************************************************************

 **************************************************************************

                    xk=(   0.66667,   0.00000,   0.10849  )

     zone border point and non-symmorphic group 
     symmetry decomposition not available

 **************************************************************************

 **************************************************************************

                    xk=(   0.66667,   0.00000,   0.09299  )

     zone border point and non-symmorphic group 
     symmetry decomposition not available

 **************************************************************************

 **************************************************************************

                    xk=(   0.66667,   0.00000,   0.07749  )

     zone border point and non-symmorphic group 
     symmetry decomposition not available

 **************************************************************************

 **************************************************************************

                    xk=(   0.66667,   0.00000,   0.06199  )

     zone border point and non-symmorphic group 
     symmetry decomposition not available

 **************************************************************************

 **************************************************************************

                    xk=(   0.66667,   0.00000,   0.04650  )

     zone border point and non-symmorphic group 
     symmetry decomposition not available

 **************************************************************************

 **************************************************************************

                    xk=(   0.66667,   0.00000,   0.03100  )

     zone border point and non-symmorphic group 
     symmetry decomposition not available

 **************************************************************************

 **************************************************************************

                    xk=(   0.66667,   0.00000,   0.01550  )

     zone border point and non-symmorphic group 
     symmetry decomposition not available

 **************************************************************************

 **************************************************************************

                    xk=(   0.66667,   0.00000,   0.00000  )

     zone border point and non-symmorphic group 
     symmetry decomposition not available

 **************************************************************************

     BANDS        :     25.94s CPU     27.54s WALL


   This run was terminated on:  21:37:10  26Mar2024            

=------------------------------------------------------------------------------=
   JOB DONE.
=------------------------------------------------------------------------------=
