
     Program PWSCF v.7.3.1 starts on 26Mar2024 at 21:33:13 

     This program is part of the open-source Quantum ESPRESSO suite
     for quantum simulation of materials; please cite
         "P. Giannozzi et al., J. Phys.:Condens. Matter 21 395502 (2009);
         "P. Giannozzi et al., J. Phys.:Condens. Matter 29 465901 (2017);
         "P. Giannozzi et al., J. Chem. Phys. 152 154105 (2020);
          URL http://www.quantum-espresso.org", 
     in publications or presentations arising from this work. More details at
     http://www.quantum-espresso.org/quote

     Parallel version (MPI & OpenMP), running on      16 processor cores
     Number of MPI processes:                16
     Threads/MPI process:                     1

     MPI processes distributed on     2 nodes
     20685 MiB available memory on the printing compute node when the environment starts

     Reading input from bands.pwi

     Current dimensions of program PWSCF are:
     Max number of different atomic species (ntypx) = 10
     Max number of k-points (npk) =  40000
     Max angular momentum in pseudopotentials (lmaxx) =  4
     file Zn.pbesol-spn-rrkjus_gipaw.1.0.0.UPF: wavefunction(s)  3P renormalized

     Atomic positions and unit cell read from directory:
     ./TMP/zno.save/


     K-points division:     npool     =       4
     R & G space division:  proc/nbgrp/npool/nimage =       4
     Subspace diagonalization in iterative solution of the eigenvalue problem:
     a serial algorithm will be used


     Parallelization info
     --------------------
     sticks:   dense  smooth     PW     G-vecs:    dense   smooth      PW
     Min         382     153     46                19836     5019     834
     Max         383     154     47                19845     5020     837
     Sum        1531     613    187                79367    20077    3345

     Using Slab Decomposition



     bravais-lattice index     =            4
     lattice parameter (alat)  =       6.1177  a.u.
     unit-cell volume          =     319.8518 (a.u.)^3
     number of atoms/cell      =            4
     number of atomic types    =            2
     number of electrons       =        52.00
     number of Kohn-Sham states=           50
     kinetic-energy cutoff     =      60.0000  Ry
     charge density cutoff     =     600.0000  Ry
     Exchange-correlation= PBESOL
                           (   1   4  10   8   0   0   0)

     celldm(1)=   6.117707  celldm(2)=   0.000000  celldm(3)=   1.613066
     celldm(4)=   0.000000  celldm(5)=   0.000000  celldm(6)=   0.000000

     crystal axes: (cart. coord. in units of alat)
               a(1) = (   1.000000   0.000000   0.000000 )  
               a(2) = (  -0.500000   0.866025   0.000000 )  
               a(3) = (   0.000000   0.000000   1.613066 )  

     reciprocal axes: (cart. coord. in units 2 pi/alat)
               b(1) = (  1.000000  0.577350 -0.000000 )  
               b(2) = (  0.000000  1.154701  0.000000 )  
               b(3) = (  0.000000 -0.000000  0.619937 )  


     PseudoPot. # 1 for Zn read from file:
     /work4/dls/shared/pslibrary_pbesol/Zn.pbesol-spn-rrkjus_gipaw.1.0.0.UPF
     MD5 check sum: b4e9e16921b23c2f86f37449a7d7d891
     Pseudo is Ultrasoft + core correction, Zval = 20.0
     Generated using 'atomic' code by A. Dal Corso  v.7.0
     Using radial grid of 1201 points,  6 beta functions with: 
                l(1) =   0
                l(2) =   0
                l(3) =   1
                l(4) =   1
                l(5) =   2
                l(6) =   2
     Q(r) pseudized with 0 coefficients 


     PseudoPot. # 2 for O  read from file:
     /work4/dls/shared/pslibrary_pbesol/O.pbesol-n-rrkjus_gipaw.1.0.0.UPF
     MD5 check sum: 2ea9f908f11928dd1b1a171180989522
     Pseudo is Ultrasoft + core correction, Zval =  6.0
     Generated using 'atomic' code by A. Dal Corso  v.7.0
     Using radial grid of 1095 points,  4 beta functions with: 
                l(1) =   0
                l(2) =   0
                l(3) =   1
                l(4) =   1
     Q(r) pseudized with 0 coefficients 


     atomic species   valence    mass     pseudopotential
     Zn               20.00    65.38000     Zn( 1.00)
     O                 6.00    15.99900     O ( 1.00)

     12 Sym. Ops. (no inversion) found ( 6 have fractional translation)


                                    s                        frac. trans.

      isym =  1     identity                                     

 cryst.   s( 1) = (     1          0          0      )
                  (     0          1          0      )
                  (     0          0          1      )

 cart.    s( 1) = (  1.0000000  0.0000000  0.0000000 )
                  (  0.0000000  1.0000000  0.0000000 )
                  (  0.0000000  0.0000000  1.0000000 )


      isym =  2     180 deg rotation - cart. axis [0,0,1]        

 cryst.   s( 2) = (    -1          0          0      )    f =(  0.0000000 )
                  (     0         -1          0      )       (  0.0000000 )
                  (     0          0          1      )       ( -0.5000000 )

 cart.    s( 2) = ( -1.0000000 -0.0000000  0.0000000 )    f =(  0.0000000 )
                  (  0.0000000 -1.0000000  0.0000000 )       (  0.0000000 )
                  (  0.0000000  0.0000000  1.0000000 )       ( -0.8065331 )


      isym =  3      60 deg rotation - cryst. axis [0,0,1]       

 cryst.   s( 3) = (     1          1          0      )    f =(  0.0000000 )
                  (    -1          0          0      )       ( -0.0000000 )
                  (     0          0          1      )       ( -0.5000000 )

 cart.    s( 3) = (  0.5000000 -0.8660254  0.0000000 )    f =(  0.0000000 )
                  (  0.8660254  0.5000000  0.0000000 )       ( -0.0000000 )
                  (  0.0000000  0.0000000  1.0000000 )       ( -0.8065331 )


      isym =  4      60 deg rotation - cryst. axis [0,0,-1]      

 cryst.   s( 4) = (     0         -1          0      )    f =(  0.0000000 )
                  (     1          1          0      )       (  0.0000000 )
                  (     0          0          1      )       ( -0.5000000 )

 cart.    s( 4) = (  0.5000000  0.8660254  0.0000000 )    f =(  0.0000000 )
                  ( -0.8660254  0.5000000  0.0000000 )       (  0.0000000 )
                  (  0.0000000  0.0000000  1.0000000 )       ( -0.8065331 )


      isym =  5     120 deg rotation - cryst. axis [0,0,1]       

 cryst.   s( 5) = (     0          1          0      )
                  (    -1         -1          0      )
                  (     0          0          1      )

 cart.    s( 5) = ( -0.5000000 -0.8660254  0.0000000 )
                  (  0.8660254 -0.5000000  0.0000000 )
                  (  0.0000000  0.0000000  1.0000000 )


      isym =  6     120 deg rotation - cryst. axis [0,0,-1]      

 cryst.   s( 6) = (    -1         -1          0      )
                  (     1          0          0      )
                  (     0          0          1      )

 cart.    s( 6) = ( -0.5000000  0.8660254  0.0000000 )
                  ( -0.8660254 -0.5000000  0.0000000 )
                  (  0.0000000  0.0000000  1.0000000 )


      isym =  7     inv. 180 deg rotation - cart. axis [0,1,0]   

 cryst.   s( 7) = (     1          0          0      )    f =(  0.0000000 )
                  (    -1         -1          0      )       (  0.0000000 )
                  (     0          0          1      )       ( -0.5000000 )

 cart.    s( 7) = (  1.0000000 -0.0000000  0.0000000 )    f =(  0.0000000 )
                  (  0.0000000 -1.0000000  0.0000000 )       (  0.0000000 )
                  (  0.0000000  0.0000000  1.0000000 )       ( -0.8065331 )


      isym =  8     inv. 180 deg rotation - cart. axis [1,0,0]   

 cryst.   s( 8) = (    -1          0          0      )
                  (     1          1          0      )
                  (     0          0          1      )

 cart.    s( 8) = ( -1.0000000  0.0000000  0.0000000 )
                  (  0.0000000  1.0000000  0.0000000 )
                  (  0.0000000  0.0000000  1.0000000 )


      isym =  9     inv. 180 deg rotation - cryst. axis [1,-1,0] 

 cryst.   s( 9) = (     0          1          0      )    f =(  0.0000000 )
                  (     1          0          0      )       ( -0.0000000 )
                  (     0          0          1      )       ( -0.5000000 )

 cart.    s( 9) = ( -0.5000000  0.8660254  0.0000000 )    f =(  0.0000000 )
                  (  0.8660254  0.5000000  0.0000000 )       ( -0.0000000 )
                  (  0.0000000  0.0000000  1.0000000 )       ( -0.8065331 )


      isym = 10     inv. 180 deg rotation - cryst. axis [2,1,0]  

 cryst.   s(10) = (    -1         -1          0      )    f =(  0.0000000 )
                  (     0          1          0      )       (  0.0000000 )
                  (     0          0          1      )       ( -0.5000000 )

 cart.    s(10) = ( -0.5000000 -0.8660254  0.0000000 )    f =(  0.0000000 )
                  ( -0.8660254  0.5000000  0.0000000 )       (  0.0000000 )
                  (  0.0000000  0.0000000  1.0000000 )       ( -0.8065331 )


      isym = 11     inv. 180 deg rotation - cryst. axis [0,1,0]  

 cryst.   s(11) = (     1          1          0      )
                  (     0         -1          0      )
                  (     0          0          1      )

 cart.    s(11) = (  0.5000000  0.8660254  0.0000000 )
                  (  0.8660254 -0.5000000  0.0000000 )
                  (  0.0000000  0.0000000  1.0000000 )


      isym = 12     inv. 180 deg rotation - cryst. axis [1,1,0]  

 cryst.   s(12) = (     0         -1          0      )
                  (    -1          0          0      )
                  (     0          0          1      )

 cart.    s(12) = (  0.5000000 -0.8660254  0.0000000 )
                  ( -0.8660254 -0.5000000  0.0000000 )
                  (  0.0000000  0.0000000  1.0000000 )


     point group C_6v (6mm) 
     there are  6 classes
     the character table:

       E     2C6   2C3   C2    3s_v  3s_d 
A_1    1.00  1.00  1.00  1.00  1.00  1.00
A_2    1.00  1.00  1.00  1.00 -1.00 -1.00
B_1    1.00 -1.00  1.00 -1.00  1.00 -1.00
B_2    1.00 -1.00  1.00 -1.00 -1.00  1.00
E_1    2.00  1.00 -1.00 -2.00  0.00  0.00
E_2    2.00 -1.00 -1.00  2.00  0.00  0.00

     the symmetry operations in each class and the name of the first element:

     E        1
          identity                                               
     2C6      3    4
           60 deg rotation - cryst. axis [0,0,1]                 
     2C3      5    6
          120 deg rotation - cryst. axis [0,0,1]                 
     C2       2
          180 deg rotation - cart. axis [0,0,1]                  
     3s_v     8   12   11
          inv. 180 deg rotation - cart. axis [1,0,0]             
     3s_d     7    9   10
          inv. 180 deg rotation - cart. axis [0,1,0]             

   Cartesian axes

     site n.     atom                  positions (alat units)
         1        Zn     tau(   1) = (  -0.0000000   0.5773503   0.0009545  )
         2        Zn     tau(   2) = (   0.5000000   0.2886751   0.8074875  )
         3        O      tau(   3) = (  -0.0000000   0.5773503   0.6125107  )
         4        O      tau(   4) = (   0.5000000   0.2886751   1.4190438  )

   Crystallographic axes

     site n.     atom                  positions (cryst. coord.)
         1        Zn     tau(   1) = (  0.3333333  0.6666667  0.0005917  )
         2        Zn     tau(   2) = (  0.6666667  0.3333333  0.5005917  )
         3        O      tau(   3) = (  0.3333333  0.6666667  0.3797183  )
         4        O      tau(   4) = (  0.6666667  0.3333333  0.8797183  )

     number of k points=   183
                       cart. coord. in units 2pi/alat
        k(    1) = (   0.0000000   0.0000000   0.0000000), wk =   0.0109290
        k(    2) = (   0.0250000   0.0144338   0.0000000), wk =   0.0109290
        k(    3) = (   0.0500000   0.0288675   0.0000000), wk =   0.0109290
        k(    4) = (   0.0750000   0.0433013   0.0000000), wk =   0.0109290
        k(    5) = (   0.1000000   0.0577350   0.0000000), wk =   0.0109290
        k(    6) = (   0.1250000   0.0721688   0.0000000), wk =   0.0109290
        k(    7) = (   0.1500000   0.0866025   0.0000000), wk =   0.0109290
        k(    8) = (   0.1750000   0.1010363   0.0000000), wk =   0.0109290
        k(    9) = (   0.2000000   0.1154701   0.0000000), wk =   0.0109290
        k(   10) = (   0.2250000   0.1299038   0.0000000), wk =   0.0109290
        k(   11) = (   0.2500000   0.1443376   0.0000000), wk =   0.0109290
        k(   12) = (   0.2750000   0.1587713   0.0000000), wk =   0.0109290
        k(   13) = (   0.3000000   0.1732051   0.0000000), wk =   0.0109290
        k(   14) = (   0.3250000   0.1876388   0.0000000), wk =   0.0109290
        k(   15) = (   0.3500000   0.2020726   0.0000000), wk =   0.0109290
        k(   16) = (   0.3750000   0.2165064   0.0000000), wk =   0.0109290
        k(   17) = (   0.4000000   0.2309401   0.0000000), wk =   0.0109290
        k(   18) = (   0.4250000   0.2453739   0.0000000), wk =   0.0109290
        k(   19) = (   0.4500000   0.2598076   0.0000000), wk =   0.0109290
        k(   20) = (   0.4750000   0.2742414   0.0000000), wk =   0.0109290
        k(   21) = (   0.5000000   0.2886751   0.0000000), wk =   0.0109290
        k(   22) = (   0.5083333   0.2742414   0.0000000), wk =   0.0109290
        k(   23) = (   0.5166667   0.2598076   0.0000000), wk =   0.0109290
        k(   24) = (   0.5250000   0.2453739   0.0000000), wk =   0.0109290
        k(   25) = (   0.5333333   0.2309401   0.0000000), wk =   0.0109290
        k(   26) = (   0.5416667   0.2165064   0.0000000), wk =   0.0109290
        k(   27) = (   0.5500000   0.2020726   0.0000000), wk =   0.0109290
        k(   28) = (   0.5583333   0.1876388   0.0000000), wk =   0.0109290
        k(   29) = (   0.5666667   0.1732051   0.0000000), wk =   0.0109290
        k(   30) = (   0.5750000   0.1587713   0.0000000), wk =   0.0109290
        k(   31) = (   0.5833333   0.1443376   0.0000000), wk =   0.0109290
        k(   32) = (   0.5916667   0.1299038   0.0000000), wk =   0.0109290
        k(   33) = (   0.6000000   0.1154701   0.0000000), wk =   0.0109290
        k(   34) = (   0.6083333   0.1010363   0.0000000), wk =   0.0109290
        k(   35) = (   0.6166667   0.0866025   0.0000000), wk =   0.0109290
        k(   36) = (   0.6250000   0.0721688   0.0000000), wk =   0.0109290
        k(   37) = (   0.6333333   0.0577350   0.0000000), wk =   0.0109290
        k(   38) = (   0.6416667   0.0433013   0.0000000), wk =   0.0109290
        k(   39) = (   0.6500000   0.0288675   0.0000000), wk =   0.0109290
        k(   40) = (   0.6583333   0.0144338   0.0000000), wk =   0.0109290
        k(   41) = (   0.6666667   0.0000000   0.0000000), wk =   0.0109290
        k(   42) = (   0.6333333   0.0000000   0.0000000), wk =   0.0109290
        k(   43) = (   0.6000000   0.0000000   0.0000000), wk =   0.0109290
        k(   44) = (   0.5666667   0.0000000   0.0000000), wk =   0.0109290
        k(   45) = (   0.5333333   0.0000000   0.0000000), wk =   0.0109290
        k(   46) = (   0.5000000   0.0000000   0.0000000), wk =   0.0109290
        k(   47) = (   0.4666667   0.0000000   0.0000000), wk =   0.0109290
        k(   48) = (   0.4333333   0.0000000   0.0000000), wk =   0.0109290
        k(   49) = (   0.4000000   0.0000000   0.0000000), wk =   0.0109290
        k(   50) = (   0.3666667   0.0000000   0.0000000), wk =   0.0109290
        k(   51) = (   0.3333333   0.0000000   0.0000000), wk =   0.0109290
        k(   52) = (   0.3000000   0.0000000   0.0000000), wk =   0.0109290
        k(   53) = (   0.2666667   0.0000000   0.0000000), wk =   0.0109290
        k(   54) = (   0.2333333   0.0000000   0.0000000), wk =   0.0109290
        k(   55) = (   0.2000000   0.0000000   0.0000000), wk =   0.0109290
        k(   56) = (   0.1666667   0.0000000   0.0000000), wk =   0.0109290
        k(   57) = (   0.1333333   0.0000000   0.0000000), wk =   0.0109290
        k(   58) = (   0.1000000   0.0000000   0.0000000), wk =   0.0109290
        k(   59) = (   0.0666667   0.0000000   0.0000000), wk =   0.0109290
        k(   60) = (   0.0333333   0.0000000   0.0000000), wk =   0.0109290
        k(   61) = (   0.0000000   0.0000000   0.0000000), wk =   0.0109290
        k(   62) = (   0.0000000   0.0000000   0.0154984), wk =   0.0109290
        k(   63) = (   0.0000000   0.0000000   0.0309969), wk =   0.0109290
        k(   64) = (   0.0000000   0.0000000   0.0464953), wk =   0.0109290
        k(   65) = (   0.0000000   0.0000000   0.0619937), wk =   0.0109290
        k(   66) = (   0.0000000   0.0000000   0.0774922), wk =   0.0109290
        k(   67) = (   0.0000000   0.0000000   0.0929906), wk =   0.0109290
        k(   68) = (   0.0000000   0.0000000   0.1084890), wk =   0.0109290
        k(   69) = (   0.0000000   0.0000000   0.1239875), wk =   0.0109290
        k(   70) = (   0.0000000   0.0000000   0.1394859), wk =   0.0109290
        k(   71) = (   0.0000000   0.0000000   0.1549843), wk =   0.0109290
        k(   72) = (   0.0000000   0.0000000   0.1704828), wk =   0.0109290
        k(   73) = (   0.0000000   0.0000000   0.1859812), wk =   0.0109290
        k(   74) = (   0.0000000   0.0000000   0.2014796), wk =   0.0109290
        k(   75) = (   0.0000000   0.0000000   0.2169781), wk =   0.0109290
        k(   76) = (   0.0000000   0.0000000   0.2324765), wk =   0.0109290
        k(   77) = (   0.0000000   0.0000000   0.2479750), wk =   0.0109290
        k(   78) = (   0.0000000   0.0000000   0.2634734), wk =   0.0109290
        k(   79) = (   0.0000000   0.0000000   0.2789718), wk =   0.0109290
        k(   80) = (   0.0000000   0.0000000   0.2944703), wk =   0.0109290
        k(   81) = (   0.0000000   0.0000000   0.3099687), wk =   0.0109290
        k(   82) = (   0.0250000   0.0144338   0.3099687), wk =   0.0109290
        k(   83) = (   0.0500000   0.0288675   0.3099687), wk =   0.0109290
        k(   84) = (   0.0750000   0.0433013   0.3099687), wk =   0.0109290
        k(   85) = (   0.1000000   0.0577350   0.3099687), wk =   0.0109290
        k(   86) = (   0.1250000   0.0721688   0.3099687), wk =   0.0109290
        k(   87) = (   0.1500000   0.0866025   0.3099687), wk =   0.0109290
        k(   88) = (   0.1750000   0.1010363   0.3099687), wk =   0.0109290
        k(   89) = (   0.2000000   0.1154701   0.3099687), wk =   0.0109290
        k(   90) = (   0.2250000   0.1299038   0.3099687), wk =   0.0109290
        k(   91) = (   0.2500000   0.1443376   0.3099687), wk =   0.0109290
        k(   92) = (   0.2750000   0.1587713   0.3099687), wk =   0.0109290
        k(   93) = (   0.3000000   0.1732051   0.3099687), wk =   0.0109290
        k(   94) = (   0.3250000   0.1876388   0.3099687), wk =   0.0109290
        k(   95) = (   0.3500000   0.2020726   0.3099687), wk =   0.0109290
        k(   96) = (   0.3750000   0.2165064   0.3099687), wk =   0.0109290
        k(   97) = (   0.4000000   0.2309401   0.3099687), wk =   0.0109290
        k(   98) = (   0.4250000   0.2453739   0.3099687), wk =   0.0109290
        k(   99) = (   0.4500000   0.2598076   0.3099687), wk =   0.0109290
        k(  100) = (   0.4750000   0.2742414   0.3099687), wk =   0.0109290
        k(  101) = (   0.5000000   0.2886751   0.3099687), wk =   0.0109290
        k(  102) = (   0.5083333   0.2742414   0.3099687), wk =   0.0109290
        k(  103) = (   0.5166667   0.2598076   0.3099687), wk =   0.0109290
        k(  104) = (   0.5250000   0.2453739   0.3099687), wk =   0.0109290
        k(  105) = (   0.5333333   0.2309401   0.3099687), wk =   0.0109290
        k(  106) = (   0.5416667   0.2165064   0.3099687), wk =   0.0109290
        k(  107) = (   0.5500000   0.2020726   0.3099687), wk =   0.0109290
        k(  108) = (   0.5583333   0.1876388   0.3099687), wk =   0.0109290
        k(  109) = (   0.5666667   0.1732051   0.3099687), wk =   0.0109290
        k(  110) = (   0.5750000   0.1587713   0.3099687), wk =   0.0109290
        k(  111) = (   0.5833333   0.1443376   0.3099687), wk =   0.0109290
        k(  112) = (   0.5916667   0.1299038   0.3099687), wk =   0.0109290
        k(  113) = (   0.6000000   0.1154701   0.3099687), wk =   0.0109290
        k(  114) = (   0.6083333   0.1010363   0.3099687), wk =   0.0109290
        k(  115) = (   0.6166667   0.0866025   0.3099687), wk =   0.0109290
        k(  116) = (   0.6250000   0.0721688   0.3099687), wk =   0.0109290
        k(  117) = (   0.6333333   0.0577350   0.3099687), wk =   0.0109290
        k(  118) = (   0.6416667   0.0433013   0.3099687), wk =   0.0109290
        k(  119) = (   0.6500000   0.0288675   0.3099687), wk =   0.0109290
        k(  120) = (   0.6583333   0.0144338   0.3099687), wk =   0.0109290
        k(  121) = (   0.6666667   0.0000000   0.3099687), wk =   0.0109290
        k(  122) = (   0.6333333   0.0000000   0.3099687), wk =   0.0109290
        k(  123) = (   0.6000000   0.0000000   0.3099687), wk =   0.0109290
        k(  124) = (   0.5666667   0.0000000   0.3099687), wk =   0.0109290
        k(  125) = (   0.5333333   0.0000000   0.3099687), wk =   0.0109290
        k(  126) = (   0.5000000   0.0000000   0.3099687), wk =   0.0109290
        k(  127) = (   0.4666667   0.0000000   0.3099687), wk =   0.0109290
        k(  128) = (   0.4333333   0.0000000   0.3099687), wk =   0.0109290
        k(  129) = (   0.4000000   0.0000000   0.3099687), wk =   0.0109290
        k(  130) = (   0.3666667   0.0000000   0.3099687), wk =   0.0109290
        k(  131) = (   0.3333333   0.0000000   0.3099687), wk =   0.0109290
        k(  132) = (   0.3000000   0.0000000   0.3099687), wk =   0.0109290
        k(  133) = (   0.2666667   0.0000000   0.3099687), wk =   0.0109290
        k(  134) = (   0.2333333   0.0000000   0.3099687), wk =   0.0109290
        k(  135) = (   0.2000000   0.0000000   0.3099687), wk =   0.0109290
        k(  136) = (   0.1666667   0.0000000   0.3099687), wk =   0.0109290
        k(  137) = (   0.1333333   0.0000000   0.3099687), wk =   0.0109290
        k(  138) = (   0.1000000   0.0000000   0.3099687), wk =   0.0109290
        k(  139) = (   0.0666667   0.0000000   0.3099687), wk =   0.0109290
        k(  140) = (   0.0333333   0.0000000   0.3099687), wk =   0.0109290
        k(  141) = (   0.0000000   0.0000000   0.3099687), wk =   0.0109290
        k(  142) = (   0.5000000   0.2886751   0.3099687), wk =   0.0109290
        k(  143) = (   0.5000000   0.2886751   0.2944703), wk =   0.0109290
        k(  144) = (   0.5000000   0.2886751   0.2789718), wk =   0.0109290
        k(  145) = (   0.5000000   0.2886751   0.2634734), wk =   0.0109290
        k(  146) = (   0.5000000   0.2886751   0.2479750), wk =   0.0109290
        k(  147) = (   0.5000000   0.2886751   0.2324765), wk =   0.0109290
        k(  148) = (   0.5000000   0.2886751   0.2169781), wk =   0.0109290
        k(  149) = (   0.5000000   0.2886751   0.2014796), wk =   0.0109290
        k(  150) = (   0.5000000   0.2886751   0.1859812), wk =   0.0109290
        k(  151) = (   0.5000000   0.2886751   0.1704828), wk =   0.0109290
        k(  152) = (   0.5000000   0.2886751   0.1549843), wk =   0.0109290
        k(  153) = (   0.5000000   0.2886751   0.1394859), wk =   0.0109290
        k(  154) = (   0.5000000   0.2886751   0.1239875), wk =   0.0109290
        k(  155) = (   0.5000000   0.2886751   0.1084890), wk =   0.0109290
        k(  156) = (   0.5000000   0.2886751   0.0929906), wk =   0.0109290
        k(  157) = (   0.5000000   0.2886751   0.0774922), wk =   0.0109290
        k(  158) = (   0.5000000   0.2886751   0.0619937), wk =   0.0109290
        k(  159) = (   0.5000000   0.2886751   0.0464953), wk =   0.0109290
        k(  160) = (   0.5000000   0.2886751   0.0309969), wk =   0.0109290
        k(  161) = (   0.5000000   0.2886751   0.0154984), wk =   0.0109290
        k(  162) = (   0.5000000   0.2886751   0.0000000), wk =   0.0109290
        k(  163) = (   0.6666667  -0.0000000   0.3099687), wk =   0.0109290
        k(  164) = (   0.6666667   0.0000000   0.2944703), wk =   0.0109290
        k(  165) = (   0.6666667   0.0000000   0.2789718), wk =   0.0109290
        k(  166) = (   0.6666667   0.0000000   0.2634734), wk =   0.0109290
        k(  167) = (   0.6666667   0.0000000   0.2479750), wk =   0.0109290
        k(  168) = (   0.6666667   0.0000000   0.2324765), wk =   0.0109290
        k(  169) = (   0.6666667   0.0000000   0.2169781), wk =   0.0109290
        k(  170) = (   0.6666667   0.0000000   0.2014796), wk =   0.0109290
        k(  171) = (   0.6666667   0.0000000   0.1859812), wk =   0.0109290
        k(  172) = (   0.6666667   0.0000000   0.1704828), wk =   0.0109290
        k(  173) = (   0.6666667   0.0000000   0.1549843), wk =   0.0109290
        k(  174) = (   0.6666667   0.0000000   0.1394859), wk =   0.0109290
        k(  175) = (   0.6666667   0.0000000   0.1239875), wk =   0.0109290
        k(  176) = (   0.6666667   0.0000000   0.1084890), wk =   0.0109290
        k(  177) = (   0.6666667   0.0000000   0.0929906), wk =   0.0109290
        k(  178) = (   0.6666667   0.0000000   0.0774922), wk =   0.0109290
        k(  179) = (   0.6666667   0.0000000   0.0619937), wk =   0.0109290
        k(  180) = (   0.6666667   0.0000000   0.0464953), wk =   0.0109290
        k(  181) = (   0.6666667   0.0000000   0.0309969), wk =   0.0109290
        k(  182) = (   0.6666667   0.0000000   0.0154984), wk =   0.0109290
        k(  183) = (   0.6666667   0.0000000   0.0000000), wk =   0.0109290

                       cryst. coord.
        k(    1) = (   0.0000000   0.0000000   0.0000000), wk =   0.0109290
        k(    2) = (   0.0250000   0.0000000   0.0000000), wk =   0.0109290
        k(    3) = (   0.0500000   0.0000000   0.0000000), wk =   0.0109290
        k(    4) = (   0.0750000   0.0000000   0.0000000), wk =   0.0109290
        k(    5) = (   0.1000000   0.0000000   0.0000000), wk =   0.0109290
        k(    6) = (   0.1250000   0.0000000   0.0000000), wk =   0.0109290
        k(    7) = (   0.1500000   0.0000000   0.0000000), wk =   0.0109290
        k(    8) = (   0.1750000   0.0000000   0.0000000), wk =   0.0109290
        k(    9) = (   0.2000000   0.0000000   0.0000000), wk =   0.0109290
        k(   10) = (   0.2250000   0.0000000   0.0000000), wk =   0.0109290
        k(   11) = (   0.2500000   0.0000000   0.0000000), wk =   0.0109290
        k(   12) = (   0.2750000   0.0000000   0.0000000), wk =   0.0109290
        k(   13) = (   0.3000000   0.0000000   0.0000000), wk =   0.0109290
        k(   14) = (   0.3250000   0.0000000   0.0000000), wk =   0.0109290
        k(   15) = (   0.3500000   0.0000000   0.0000000), wk =   0.0109290
        k(   16) = (   0.3750000   0.0000000   0.0000000), wk =   0.0109290
        k(   17) = (   0.4000000   0.0000000   0.0000000), wk =   0.0109290
        k(   18) = (   0.4250000   0.0000000   0.0000000), wk =   0.0109290
        k(   19) = (   0.4500000   0.0000000   0.0000000), wk =   0.0109290
        k(   20) = (   0.4750000   0.0000000   0.0000000), wk =   0.0109290
        k(   21) = (   0.5000000   0.0000000   0.0000000), wk =   0.0109290
        k(   22) = (   0.5083333  -0.0166667   0.0000000), wk =   0.0109290
        k(   23) = (   0.5166667  -0.0333333   0.0000000), wk =   0.0109290
        k(   24) = (   0.5250000  -0.0500000   0.0000000), wk =   0.0109290
        k(   25) = (   0.5333333  -0.0666667   0.0000000), wk =   0.0109290
        k(   26) = (   0.5416667  -0.0833333   0.0000000), wk =   0.0109290
        k(   27) = (   0.5500000  -0.1000000   0.0000000), wk =   0.0109290
        k(   28) = (   0.5583333  -0.1166667   0.0000000), wk =   0.0109290
        k(   29) = (   0.5666667  -0.1333333   0.0000000), wk =   0.0109290
        k(   30) = (   0.5750000  -0.1500000   0.0000000), wk =   0.0109290
        k(   31) = (   0.5833333  -0.1666667   0.0000000), wk =   0.0109290
        k(   32) = (   0.5916667  -0.1833333   0.0000000), wk =   0.0109290
        k(   33) = (   0.6000000  -0.2000000   0.0000000), wk =   0.0109290
        k(   34) = (   0.6083333  -0.2166667   0.0000000), wk =   0.0109290
        k(   35) = (   0.6166667  -0.2333333   0.0000000), wk =   0.0109290
        k(   36) = (   0.6250000  -0.2500000   0.0000000), wk =   0.0109290
        k(   37) = (   0.6333333  -0.2666667   0.0000000), wk =   0.0109290
        k(   38) = (   0.6416667  -0.2833333   0.0000000), wk =   0.0109290
        k(   39) = (   0.6500000  -0.3000000   0.0000000), wk =   0.0109290
        k(   40) = (   0.6583333  -0.3166667   0.0000000), wk =   0.0109290
        k(   41) = (   0.6666667  -0.3333333   0.0000000), wk =   0.0109290
        k(   42) = (   0.6333333  -0.3166667   0.0000000), wk =   0.0109290
        k(   43) = (   0.6000000  -0.3000000   0.0000000), wk =   0.0109290
        k(   44) = (   0.5666667  -0.2833333   0.0000000), wk =   0.0109290
        k(   45) = (   0.5333333  -0.2666667   0.0000000), wk =   0.0109290
        k(   46) = (   0.5000000  -0.2500000   0.0000000), wk =   0.0109290
        k(   47) = (   0.4666667  -0.2333333   0.0000000), wk =   0.0109290
        k(   48) = (   0.4333333  -0.2166667   0.0000000), wk =   0.0109290
        k(   49) = (   0.4000000  -0.2000000   0.0000000), wk =   0.0109290
        k(   50) = (   0.3666667  -0.1833333   0.0000000), wk =   0.0109290
        k(   51) = (   0.3333333  -0.1666667   0.0000000), wk =   0.0109290
        k(   52) = (   0.3000000  -0.1500000   0.0000000), wk =   0.0109290
        k(   53) = (   0.2666667  -0.1333333   0.0000000), wk =   0.0109290
        k(   54) = (   0.2333333  -0.1166667   0.0000000), wk =   0.0109290
        k(   55) = (   0.2000000  -0.1000000   0.0000000), wk =   0.0109290
        k(   56) = (   0.1666667  -0.0833333   0.0000000), wk =   0.0109290
        k(   57) = (   0.1333333  -0.0666667   0.0000000), wk =   0.0109290
        k(   58) = (   0.1000000  -0.0500000   0.0000000), wk =   0.0109290
        k(   59) = (   0.0666667  -0.0333333   0.0000000), wk =   0.0109290
        k(   60) = (   0.0333333  -0.0166667   0.0000000), wk =   0.0109290
        k(   61) = (   0.0000000   0.0000000   0.0000000), wk =   0.0109290
        k(   62) = (   0.0000000   0.0000000   0.0250000), wk =   0.0109290
        k(   63) = (   0.0000000   0.0000000   0.0500000), wk =   0.0109290
        k(   64) = (   0.0000000   0.0000000   0.0750000), wk =   0.0109290
        k(   65) = (   0.0000000   0.0000000   0.1000000), wk =   0.0109290
        k(   66) = (   0.0000000   0.0000000   0.1250000), wk =   0.0109290
        k(   67) = (   0.0000000   0.0000000   0.1500000), wk =   0.0109290
        k(   68) = (   0.0000000   0.0000000   0.1750000), wk =   0.0109290
        k(   69) = (   0.0000000   0.0000000   0.2000000), wk =   0.0109290
        k(   70) = (   0.0000000   0.0000000   0.2250000), wk =   0.0109290
        k(   71) = (   0.0000000   0.0000000   0.2500000), wk =   0.0109290
        k(   72) = (   0.0000000   0.0000000   0.2750000), wk =   0.0109290
        k(   73) = (   0.0000000   0.0000000   0.3000000), wk =   0.0109290
        k(   74) = (   0.0000000   0.0000000   0.3250000), wk =   0.0109290
        k(   75) = (   0.0000000   0.0000000   0.3500000), wk =   0.0109290
        k(   76) = (   0.0000000   0.0000000   0.3750000), wk =   0.0109290
        k(   77) = (   0.0000000   0.0000000   0.4000000), wk =   0.0109290
        k(   78) = (   0.0000000   0.0000000   0.4250000), wk =   0.0109290
        k(   79) = (   0.0000000   0.0000000   0.4500000), wk =   0.0109290
        k(   80) = (   0.0000000   0.0000000   0.4750000), wk =   0.0109290
        k(   81) = (   0.0000000   0.0000000   0.5000000), wk =   0.0109290
        k(   82) = (   0.0250000   0.0000000   0.5000000), wk =   0.0109290
        k(   83) = (   0.0500000   0.0000000   0.5000000), wk =   0.0109290
        k(   84) = (   0.0750000   0.0000000   0.5000000), wk =   0.0109290
        k(   85) = (   0.1000000   0.0000000   0.5000000), wk =   0.0109290
        k(   86) = (   0.1250000   0.0000000   0.5000000), wk =   0.0109290
        k(   87) = (   0.1500000   0.0000000   0.5000000), wk =   0.0109290
        k(   88) = (   0.1750000   0.0000000   0.5000000), wk =   0.0109290
        k(   89) = (   0.2000000   0.0000000   0.5000000), wk =   0.0109290
        k(   90) = (   0.2250000   0.0000000   0.5000000), wk =   0.0109290
        k(   91) = (   0.2500000   0.0000000   0.5000000), wk =   0.0109290
        k(   92) = (   0.2750000   0.0000000   0.5000000), wk =   0.0109290
        k(   93) = (   0.3000000   0.0000000   0.5000000), wk =   0.0109290
        k(   94) = (   0.3250000   0.0000000   0.5000000), wk =   0.0109290
        k(   95) = (   0.3500000   0.0000000   0.5000000), wk =   0.0109290
        k(   96) = (   0.3750000   0.0000000   0.5000000), wk =   0.0109290
        k(   97) = (   0.4000000   0.0000000   0.5000000), wk =   0.0109290
        k(   98) = (   0.4250000   0.0000000   0.5000000), wk =   0.0109290
        k(   99) = (   0.4500000   0.0000000   0.5000000), wk =   0.0109290
        k(  100) = (   0.4750000   0.0000000   0.5000000), wk =   0.0109290
        k(  101) = (   0.5000000   0.0000000   0.5000000), wk =   0.0109290
        k(  102) = (   0.5083333  -0.0166667   0.5000000), wk =   0.0109290
        k(  103) = (   0.5166667  -0.0333333   0.5000000), wk =   0.0109290
        k(  104) = (   0.5250000  -0.0500000   0.5000000), wk =   0.0109290
        k(  105) = (   0.5333333  -0.0666667   0.5000000), wk =   0.0109290
        k(  106) = (   0.5416667  -0.0833333   0.5000000), wk =   0.0109290
        k(  107) = (   0.5500000  -0.1000000   0.5000000), wk =   0.0109290
        k(  108) = (   0.5583333  -0.1166667   0.5000000), wk =   0.0109290
        k(  109) = (   0.5666667  -0.1333333   0.5000000), wk =   0.0109290
        k(  110) = (   0.5750000  -0.1500000   0.5000000), wk =   0.0109290
        k(  111) = (   0.5833333  -0.1666667   0.5000000), wk =   0.0109290
        k(  112) = (   0.5916667  -0.1833333   0.5000000), wk =   0.0109290
        k(  113) = (   0.6000000  -0.2000000   0.5000000), wk =   0.0109290
        k(  114) = (   0.6083333  -0.2166667   0.5000000), wk =   0.0109290
        k(  115) = (   0.6166667  -0.2333333   0.5000000), wk =   0.0109290
        k(  116) = (   0.6250000  -0.2500000   0.5000000), wk =   0.0109290
        k(  117) = (   0.6333333  -0.2666667   0.5000000), wk =   0.0109290
        k(  118) = (   0.6416667  -0.2833333   0.5000000), wk =   0.0109290
        k(  119) = (   0.6500000  -0.3000000   0.5000000), wk =   0.0109290
        k(  120) = (   0.6583333  -0.3166667   0.5000000), wk =   0.0109290
        k(  121) = (   0.6666667  -0.3333333   0.5000000), wk =   0.0109290
        k(  122) = (   0.6333333  -0.3166667   0.5000000), wk =   0.0109290
        k(  123) = (   0.6000000  -0.3000000   0.5000000), wk =   0.0109290
        k(  124) = (   0.5666667  -0.2833333   0.5000000), wk =   0.0109290
        k(  125) = (   0.5333333  -0.2666667   0.5000000), wk =   0.0109290
        k(  126) = (   0.5000000  -0.2500000   0.5000000), wk =   0.0109290
        k(  127) = (   0.4666667  -0.2333333   0.5000000), wk =   0.0109290
        k(  128) = (   0.4333333  -0.2166667   0.5000000), wk =   0.0109290
        k(  129) = (   0.4000000  -0.2000000   0.5000000), wk =   0.0109290
        k(  130) = (   0.3666667  -0.1833333   0.5000000), wk =   0.0109290
        k(  131) = (   0.3333333  -0.1666667   0.5000000), wk =   0.0109290
        k(  132) = (   0.3000000  -0.1500000   0.5000000), wk =   0.0109290
        k(  133) = (   0.2666667  -0.1333333   0.5000000), wk =   0.0109290
        k(  134) = (   0.2333333  -0.1166667   0.5000000), wk =   0.0109290
        k(  135) = (   0.2000000  -0.1000000   0.5000000), wk =   0.0109290
        k(  136) = (   0.1666667  -0.0833333   0.5000000), wk =   0.0109290
        k(  137) = (   0.1333333  -0.0666667   0.5000000), wk =   0.0109290
        k(  138) = (   0.1000000  -0.0500000   0.5000000), wk =   0.0109290
        k(  139) = (   0.0666667  -0.0333333   0.5000000), wk =   0.0109290
        k(  140) = (   0.0333333  -0.0166667   0.5000000), wk =   0.0109290
        k(  141) = (   0.0000000   0.0000000   0.5000000), wk =   0.0109290
        k(  142) = (   0.5000000   0.0000000   0.5000000), wk =   0.0109290
        k(  143) = (   0.5000000   0.0000000   0.4750000), wk =   0.0109290
        k(  144) = (   0.5000000   0.0000000   0.4500000), wk =   0.0109290
        k(  145) = (   0.5000000   0.0000000   0.4250000), wk =   0.0109290
        k(  146) = (   0.5000000   0.0000000   0.4000000), wk =   0.0109290
        k(  147) = (   0.5000000   0.0000000   0.3750000), wk =   0.0109290
        k(  148) = (   0.5000000   0.0000000   0.3500000), wk =   0.0109290
        k(  149) = (   0.5000000   0.0000000   0.3250000), wk =   0.0109290
        k(  150) = (   0.5000000   0.0000000   0.3000000), wk =   0.0109290
        k(  151) = (   0.5000000   0.0000000   0.2750000), wk =   0.0109290
        k(  152) = (   0.5000000   0.0000000   0.2500000), wk =   0.0109290
        k(  153) = (   0.5000000   0.0000000   0.2250000), wk =   0.0109290
        k(  154) = (   0.5000000   0.0000000   0.2000000), wk =   0.0109290
        k(  155) = (   0.5000000   0.0000000   0.1750000), wk =   0.0109290
        k(  156) = (   0.5000000   0.0000000   0.1500000), wk =   0.0109290
        k(  157) = (   0.5000000   0.0000000   0.1250000), wk =   0.0109290
        k(  158) = (   0.5000000   0.0000000   0.1000000), wk =   0.0109290
        k(  159) = (   0.5000000   0.0000000   0.0750000), wk =   0.0109290
        k(  160) = (   0.5000000   0.0000000   0.0500000), wk =   0.0109290
        k(  161) = (   0.5000000   0.0000000   0.0250000), wk =   0.0109290
        k(  162) = (   0.5000000   0.0000000   0.0000000), wk =   0.0109290
        k(  163) = (   0.6666667  -0.3333333   0.5000000), wk =   0.0109290
        k(  164) = (   0.6666667  -0.3333333   0.4750000), wk =   0.0109290
        k(  165) = (   0.6666667  -0.3333333   0.4500000), wk =   0.0109290
        k(  166) = (   0.6666667  -0.3333333   0.4250000), wk =   0.0109290
        k(  167) = (   0.6666667  -0.3333333   0.4000000), wk =   0.0109290
        k(  168) = (   0.6666667  -0.3333333   0.3750000), wk =   0.0109290
        k(  169) = (   0.6666667  -0.3333333   0.3500000), wk =   0.0109290
        k(  170) = (   0.6666667  -0.3333333   0.3250000), wk =   0.0109290
        k(  171) = (   0.6666667  -0.3333333   0.3000000), wk =   0.0109290
        k(  172) = (   0.6666667  -0.3333333   0.2750000), wk =   0.0109290
        k(  173) = (   0.6666667  -0.3333333   0.2500000), wk =   0.0109290
        k(  174) = (   0.6666667  -0.3333333   0.2250000), wk =   0.0109290
        k(  175) = (   0.6666667  -0.3333333   0.2000000), wk =   0.0109290
        k(  176) = (   0.6666667  -0.3333333   0.1750000), wk =   0.0109290
        k(  177) = (   0.6666667  -0.3333333   0.1500000), wk =   0.0109290
        k(  178) = (   0.6666667  -0.3333333   0.1250000), wk =   0.0109290
        k(  179) = (   0.6666667  -0.3333333   0.1000000), wk =   0.0109290
        k(  180) = (   0.6666667  -0.3333333   0.0750000), wk =   0.0109290
        k(  181) = (   0.6666667  -0.3333333   0.0500000), wk =   0.0109290
        k(  182) = (   0.6666667  -0.3333333   0.0250000), wk =   0.0109290
        k(  183) = (   0.6666667  -0.3333333   0.0000000), wk =   0.0109290

     Dense  grid:    79367 G-vectors     FFT dimensions: (  48,  48,  80)

     Smooth grid:    20077 G-vectors     FFT dimensions: (  32,  32,  50)

     Dynamical RAM for                 wfc:       0.48 MB

     Dynamical RAM for     wfc (w. buffer):       0.48 MB

     Dynamical RAM for           str. fact:       0.61 MB

     Dynamical RAM for           local pot:       0.00 MB

     Dynamical RAM for          nlocal pot:       0.50 MB

     Dynamical RAM for                qrad:       3.93 MB

     Dynamical RAM for          rho,v,vnew:       1.96 MB

     Dynamical RAM for           G-vectors:       1.17 MB

     Dynamical RAM for          h,s,v(r/c):       0.11 MB

     Dynamical RAM for          <psi|beta>:       0.04 MB

     Dynamical RAM for      wfcinit/wfcrot:       1.01 MB

     Dynamical RAM for           addusdens:      14.46 MB

     Estimated static dynamical RAM per process >      11.31 MB

     Estimated max dynamical RAM per process >      25.77 MB

     Estimated total dynamical RAM >     412.37 MB

     The potential is recalculated from file :
     ./TMP/zno.save/charge-density

     Starting wfcs are   28 atomic +   22 random wfcs

     Band Structure Calculation
     CG style diagonalization

     Computing kpt #:     1  of    46 on this pool
     total cpu time spent up to now is        3.6 secs

     Computing kpt #:     2  of    46 on this pool
     total cpu time spent up to now is        5.6 secs

     Computing kpt #:     3  of    46 on this pool
     total cpu time spent up to now is        7.6 secs

     Computing kpt #:     4  of    46 on this pool
     total cpu time spent up to now is        9.3 secs

     Computing kpt #:     5  of    46 on this pool
     total cpu time spent up to now is       11.1 secs

     Computing kpt #:     6  of    46 on this pool
     total cpu time spent up to now is       12.9 secs

     Computing kpt #:     7  of    46 on this pool
     c_bands:  1 eigenvalues not converged
     total cpu time spent up to now is       14.6 secs

     Computing kpt #:     8  of    46 on this pool
     c_bands:  1 eigenvalues not converged
     total cpu time spent up to now is       16.4 secs

     Computing kpt #:     9  of    46 on this pool
     c_bands:  1 eigenvalues not converged
     total cpu time spent up to now is       18.1 secs

     Computing kpt #:    10  of    46 on this pool
     c_bands:  3 eigenvalues not converged
     total cpu time spent up to now is       19.9 secs

     Computing kpt #:    11  of    46 on this pool
     c_bands:  3 eigenvalues not converged
     total cpu time spent up to now is       21.7 secs

     Computing kpt #:    12  of    46 on this pool
     c_bands:  2 eigenvalues not converged
     total cpu time spent up to now is       23.5 secs

     Computing kpt #:    13  of    46 on this pool
     c_bands:  1 eigenvalues not converged
     total cpu time spent up to now is       25.3 secs

     Computing kpt #:    14  of    46 on this pool
     c_bands:  1 eigenvalues not converged
     total cpu time spent up to now is       27.1 secs

     Computing kpt #:    15  of    46 on this pool
     c_bands:  2 eigenvalues not converged
     total cpu time spent up to now is       29.0 secs

     Computing kpt #:    16  of    46 on this pool
     c_bands:  2 eigenvalues not converged
     total cpu time spent up to now is       30.8 secs

     Computing kpt #:    17  of    46 on this pool
     c_bands:  2 eigenvalues not converged
     total cpu time spent up to now is       32.6 secs

     Computing kpt #:    18  of    46 on this pool
     c_bands:  3 eigenvalues not converged
     total cpu time spent up to now is       34.4 secs

     Computing kpt #:    19  of    46 on this pool
     c_bands:  2 eigenvalues not converged
     total cpu time spent up to now is       36.2 secs

     Computing kpt #:    20  of    46 on this pool
     c_bands:  4 eigenvalues not converged
     total cpu time spent up to now is       38.0 secs

     Computing kpt #:    21  of    46 on this pool
     c_bands:  3 eigenvalues not converged
     total cpu time spent up to now is       39.9 secs

     Computing kpt #:    22  of    46 on this pool
     c_bands:  3 eigenvalues not converged
     total cpu time spent up to now is       41.7 secs

     Computing kpt #:    23  of    46 on this pool
     c_bands:  3 eigenvalues not converged
     total cpu time spent up to now is       43.4 secs

     Computing kpt #:    24  of    46 on this pool
     c_bands:  2 eigenvalues not converged
     total cpu time spent up to now is       45.2 secs

     Computing kpt #:    25  of    46 on this pool
     c_bands:  2 eigenvalues not converged
     total cpu time spent up to now is       47.0 secs

     Computing kpt #:    26  of    46 on this pool
     c_bands:  2 eigenvalues not converged
     total cpu time spent up to now is       48.8 secs

     Computing kpt #:    27  of    46 on this pool
     c_bands:  2 eigenvalues not converged
     total cpu time spent up to now is       50.6 secs

     Computing kpt #:    28  of    46 on this pool
     c_bands:  1 eigenvalues not converged
     total cpu time spent up to now is       52.4 secs

     Computing kpt #:    29  of    46 on this pool
     c_bands:  2 eigenvalues not converged
     total cpu time spent up to now is       54.1 secs

     Computing kpt #:    30  of    46 on this pool
     c_bands:  2 eigenvalues not converged
     total cpu time spent up to now is       55.9 secs

     Computing kpt #:    31  of    46 on this pool
     c_bands:  2 eigenvalues not converged
     total cpu time spent up to now is       57.6 secs

     Computing kpt #:    32  of    46 on this pool
     c_bands:  2 eigenvalues not converged
     total cpu time spent up to now is       59.4 secs

     Computing kpt #:    33  of    46 on this pool
     c_bands:  2 eigenvalues not converged
     total cpu time spent up to now is       61.3 secs

     Computing kpt #:    34  of    46 on this pool
     c_bands:  2 eigenvalues not converged
     total cpu time spent up to now is       63.1 secs

     Computing kpt #:    35  of    46 on this pool
     c_bands:  2 eigenvalues not converged
     total cpu time spent up to now is       64.9 secs

     Computing kpt #:    36  of    46 on this pool
     c_bands:  2 eigenvalues not converged
     total cpu time spent up to now is       66.8 secs

     Computing kpt #:    37  of    46 on this pool
     c_bands:  2 eigenvalues not converged
     total cpu time spent up to now is       68.5 secs

     Computing kpt #:    38  of    46 on this pool
     c_bands:  2 eigenvalues not converged
     total cpu time spent up to now is       70.2 secs

     Computing kpt #:    39  of    46 on this pool
     c_bands:  1 eigenvalues not converged
     total cpu time spent up to now is       72.0 secs

     Computing kpt #:    40  of    46 on this pool
     c_bands:  2 eigenvalues not converged
     total cpu time spent up to now is       73.8 secs

     Computing kpt #:    41  of    46 on this pool
     c_bands:  1 eigenvalues not converged
     total cpu time spent up to now is       75.5 secs

     Computing kpt #:    42  of    46 on this pool
     c_bands:  2 eigenvalues not converged
     total cpu time spent up to now is       77.3 secs

     Computing kpt #:    43  of    46 on this pool
     c_bands:  2 eigenvalues not converged
     total cpu time spent up to now is       79.1 secs

     Computing kpt #:    44  of    46 on this pool
     c_bands:  2 eigenvalues not converged
     total cpu time spent up to now is       80.9 secs

     Computing kpt #:    45  of    46 on this pool
     c_bands:  2 eigenvalues not converged
     total cpu time spent up to now is       82.7 secs

     Computing kpt #:    46  of    46 on this pool
     c_bands:  1 eigenvalues not converged
     total cpu time spent up to now is       84.3 secs

     ethr =  1.92E-12,  avg # of iterations = 81.8

     total cpu time spent up to now is       84.4 secs

     End of band structure calculation

          k = 0.0000 0.0000 0.0000 (  2539 PWs)   bands (ev):

  -114.3175-114.3170 -68.6558 -68.6533 -68.6475 -68.6475 -68.6468 -68.6468
    -9.2330  -8.4848   3.0641   3.0641   3.0929   3.1086   3.2581   3.2581
     4.2599   4.2599   4.4738   4.4738   4.7527   8.0167   8.0167   8.7262
     8.8176   8.8176   9.5348  14.0031  16.9228  21.6916  21.6916  22.7542
    22.9635  22.9635  25.2054  26.9142  26.9142  28.5612  28.5612  28.6151
    29.9515  31.8488  33.6207  33.6207  36.2304  37.1939  37.1939  37.5044
    39.8984  39.8984

          k = 0.0250 0.0144 0.0000 (  2539 PWs)   bands (ev):

  -114.3175-114.3170 -68.6558 -68.6533 -68.6475 -68.6475 -68.6467 -68.6467
    -9.2294  -8.4831   3.0591   3.0662   3.0980   3.1117   3.2576   3.2609
     4.2583   4.2595   4.4742   4.4765   4.7519   7.9925   8.0079   8.7195
     8.7461   8.8130   9.6166  14.0316  16.9224  21.6020  21.6975  22.7705
    22.9093  22.9738  25.2084  26.8385  26.8968  28.4206  28.6727  28.8551
    29.9971  31.9424  33.5411  33.6262  36.3179  37.1427  37.1964  37.5164
    39.8393  39.8458

          k = 0.0500 0.0289 0.0000 (  2541 PWs)   bands (ev):

  -114.3175-114.3171 -68.6557 -68.6529 -68.6480 -68.6476 -68.6469 -68.6467
    -9.2185  -8.4781   3.0451   3.0724   3.1132   3.1200   3.2565   3.2695
     4.2537   4.2587   4.4752   4.4844   4.7495   7.9206   7.9819   8.5777
     8.7109   8.7993   9.8052  14.1144  16.9211  21.3629  21.7151  22.7310
    22.8348  23.0032  25.1660  26.6598  26.8867  28.3925  28.9600  29.1634
    30.1394  32.2058  33.3383  33.6428  36.5504  37.0122  37.2037  37.5283
    39.6775  39.7134

          k = 0.0750 0.0433 0.0000 (  2533 PWs)   bands (ev):

  -114.3173-114.3170 -68.6553 -68.6526 -68.6480 -68.6477 -68.6466 -68.6465
    -9.2005  -8.4701   3.0238   3.0826   3.1294   3.1403   3.2559   3.2838
     4.2461   4.2576   4.4768   4.4975   4.7456   7.8036   7.9393   8.3865
     8.6896   8.7767  10.0388  14.2481  16.9190  21.0297  21.7443  22.4993
    22.8844  23.0462  24.9987  26.4535  26.9482  28.4943  29.3520  29.5012
    30.3709  32.5626  33.1238  33.6710  36.8298  36.8718  37.2148  37.5119
    39.4462  39.5587

          k = 0.1000 0.0577 0.0000 (  2539 PWs)   bands (ev):

  -114.3175-114.3170 -68.6554 -68.6527 -68.6480 -68.6478 -68.6469 -68.6468
    -9.1759  -8.4591   2.9964   3.0962   3.1428   3.1721   3.2594   3.3034
     4.2358   4.2566   4.4789   4.5158   4.7403   7.6460   7.8812   8.1911
     8.6599   8.7454  10.2934  14.4244  16.9154  20.6467  21.7847  22.2097
    22.9376  23.0937  24.7156  26.2670  27.0510  28.7182  29.8074  29.8775
    30.6561  32.6001  33.3300  33.7110  36.6107  37.2273  37.2351  37.4491
    39.1769  39.4407

          k = 0.1250 0.0722 0.0000 (  2531 PWs)   bands (ev):

  -114.3175-114.3168 -68.6549 -68.6527 -68.6478 -68.6476 -68.6471 -68.6470
    -9.1450  -8.4457   2.9644   3.1130   3.1564   3.2021   3.2774   3.3284
     4.2231   4.2561   4.4814   4.5389   4.7342   7.4549   7.8093   7.9994
     8.6217   8.7061  10.5622  14.6357  16.9105  20.2437  21.8352  21.8921
    22.9654  23.1343  24.3978  26.1294  27.1201  29.0596  30.2791  30.3073
    30.9697  32.3825  33.7644  33.9163  36.3685  37.2395  37.3397  37.6128
    38.8922  39.4016

          k = 0.1500 0.0866 0.0000 (  2535 PWs)   bands (ev):

  -114.3176-114.3168 -68.6545 -68.6527 -68.6483 -68.6479 -68.6476 -68.6471
    -9.1083  -8.4301   2.9294   3.1323   3.1664   3.2224   3.3201   3.3583
     4.2083   4.2569   4.4841   4.5663   4.7280   7.2392   7.7251   7.8122
     8.5746   8.6593  10.8407  14.8701  16.9036  19.8384  21.5646  21.8943
    22.9201  23.1556  24.1394  26.0596  27.1309  29.4621  30.6476  30.8413
    31.3043  32.2487  33.8319  34.5865  36.1186  37.1988  37.2476  37.9849
    38.6063  39.4612

          k = 0.1750 0.1010 0.0000 (  2529 PWs)   bands (ev):

  -114.3175-114.3167 -68.6541 -68.6525 -68.6483 -68.6481 -68.6476 -68.6474
    -9.0664  -8.4130   2.8931   3.1533   3.1687   3.2427   3.3812   3.3928
     4.1920   4.2593   4.4869   4.5959   4.7239   7.0081   7.6281   7.6307
     8.5186   8.6061  11.1277  15.1194  16.8942  19.4431  21.2425  21.9598
    22.7512  23.1487  24.0184  26.0693  27.1003  29.7866  30.9459  31.4043
    31.6794  32.3190  33.9145  35.2712  35.8919  37.0573  37.2485  38.3290
    38.3375  39.6260

          k = 0.2000 0.1155 0.0000 (  2529 PWs)   bands (ev):

  -114.3175-114.3168 -68.6541 -68.6523 -68.6484 -68.6483 -68.6480 -68.6475
    -9.0201  -8.3950   2.8572   3.1642   3.1754   3.2688   3.4316   3.4523
     4.1748   4.2639   4.4899   4.6229   4.7270   6.7692   7.4461   7.5281
     8.4537   8.5476  11.4211  15.3714  16.8814  19.0645  20.9354  22.0283
    22.4773  23.1124  24.0293  26.1616  27.0505  29.8642  31.2783  31.9913
    32.0748  32.6026  34.0130  35.6060  36.0430  36.9460  37.2382  38.0667
    38.6592  39.9016

          k = 0.2250 0.1299 0.0000 (  2527 PWs)   bands (ev):

  -114.3174-114.3168 -68.6543 -68.6523 -68.6485 -68.6484 -68.6479 -68.6475
    -8.9702  -8.3766   2.8237   3.1557   3.1975   3.3002   3.4739   3.5289
     4.1580   4.2712   4.4929   4.6386   4.7461   6.5286   7.2661   7.4194
     8.3801   8.4849  11.7196  15.6162  16.8648  18.7083  20.6515  22.0954
    22.1635  23.0533  24.1132  26.3299  26.9986  29.7181  31.6402  32.4917
    32.5982  32.9930  34.1277  35.5078  36.6694  36.8933  37.2123  37.8251
    38.9393  40.3247

          k = 0.2500 0.1443 0.0000 (  2531 PWs)   bands (ev):

  -114.3174-114.3168 -68.6543 -68.6524 -68.6490 -68.6486 -68.6486 -68.6472
    -8.9178  -8.3585   2.7941   3.1452   3.2191   3.3356   3.5192   3.6067
     4.1436   4.2814   4.4960   4.6414   4.7828   6.2921   7.0882   7.3071
     8.2981   8.4195  12.0208  15.8411  16.8430  18.3786  20.3967  21.8565
    22.1546  22.9844  24.2259  26.5628  26.9570  29.4739  31.9073  32.9477
    33.2195  33.3569  34.2582  35.5386  36.9151  37.1673  37.2595  37.6101
    39.1466  40.0992

          k = 0.2750 0.1588 0.0000 (  2515 PWs)   bands (ev):

  -114.3172-114.3167 -68.6541 -68.6523 -68.6485 -68.6484 -68.6483 -68.6469
    -8.8637  -8.3414   2.7701   3.1337   3.2393   3.3743   3.5666   3.6802
     4.1349   4.2947   4.4992   4.6390   4.8289   6.0655   6.9138   7.1933
     8.2086   8.3531  12.3248  16.0343  16.8134  18.0821  20.1759  21.5817
    22.1976  22.9215  24.3423  26.8464  26.9339  29.2000  32.0509  33.3214
    33.6710  33.8463  34.4040  35.7917  37.0242  37.0996  37.4312  37.7865
    39.1491  39.9120

          k = 0.3000 0.1732 0.0000 (  2507 PWs)   bands (ev):

  -114.3170-114.3167 -68.6543 -68.6520 -68.6486 -68.6483 -68.6480 -68.6466
    -8.8092  -8.3259   2.7530   3.1214   3.2576   3.4155   3.6150   3.7410
     4.1370   4.3108   4.5025   4.6377   4.8762   5.8547   6.7441   7.0805
     8.1128   8.2871  12.6286  16.1820  16.7693  17.8259  19.9891  21.3546
    22.2151  22.8797  24.4466  26.9351  27.1677  28.9273  32.0988  33.4259
    34.0441  34.4488  34.5739  36.2417  37.0055  37.2143  37.3068  38.2633
    38.8887  40.0571

          k = 0.3250 0.1876 0.0000 (  2513 PWs)   bands (ev):

  -114.3170-114.3168 -68.6542 -68.6524 -68.6492 -68.6486 -68.6482 -68.6467
    -8.7555  -8.3127   2.7431   3.1083   3.2736   3.4586   3.6630   3.7808
     4.1543   4.3293   4.5059   4.6425   4.9159   5.6688   6.5803   6.9713
     8.0125   8.2233  12.9300  16.2788  16.6964  17.6241  19.8330  21.1849
    22.2027  22.8673  24.5290  26.9614  27.5135  28.6706  32.0809  33.3875
    34.3664  34.7026  35.0507  36.7561  36.8856  37.2744  37.4694  38.5637
    38.7843  40.3613

          k = 0.3500 0.2021 0.0000 (  2505 PWs)   bands (ev):

  -114.3169-114.3167 -68.6541 -68.6522 -68.6491 -68.6483 -68.6482 -68.6468
    -8.7037  -8.3022   2.7415   3.0944   3.2871   3.5029   3.7094   3.7968
     4.1856   4.3495   4.5094   4.6581   4.9348   5.5212   6.4259   6.8681
     7.9102   8.1634  13.2281  16.3280  16.5779  17.4892  19.7033  21.0768
    22.1662  22.8809  24.5856  27.0111  27.8717  28.4394  32.0229  33.3164
    34.5629  34.8490  35.5157  36.7499  37.1702  37.4005  37.6621  38.6089
    39.2470  40.7598

          k = 0.3750 0.2165 0.0000 (  2505 PWs)   bands (ev):

  -114.3170-114.3166 -68.6537 -68.6525 -68.6493 -68.6483 -68.6480 -68.6474
    -8.6552  -8.2947   2.7476   3.0792   3.2982   3.5474   3.7524   3.7937
     4.2211   4.3703   4.5129   4.6871   4.9189   5.4261   6.2841   6.7738
     7.8092   8.1090  13.5191  16.3412  16.4107  17.4151  19.5942  21.0266
    22.1173  22.9099  24.6174  27.0753  28.2279  28.2382  31.9453  33.2583
    34.6163  34.9585  35.8141  36.6158  37.4163  37.6150  37.7541  39.1190
    39.7800  41.1657

          k = 0.4000 0.2309 0.0000 (  2505 PWs)   bands (ev):

  -114.3169-114.3166 -68.6538 -68.6525 -68.6488 -68.6488 -68.6483 -68.6474
    -8.6114  -8.2904   2.7606   3.0625   3.3068   3.5905   3.7795   3.7904
     4.2512   4.3905   4.5162   4.7197   4.8793   5.3797   6.1614   6.6912
     7.7141   8.0619  13.8011  16.2106  16.3333  17.3785  19.5022  21.0223
    22.0671  22.9441  24.6297  27.1435  28.0738  28.5663  31.8636  33.2375
    34.5418  35.0059  35.9766  36.5023  37.3878  37.6827  38.3140  39.8242
    40.3725  40.7571

          k = 0.4250 0.2454 0.0000 (  2505 PWs)   bands (ev):

  -114.3169-114.3166 -68.6538 -68.6526 -68.6490 -68.6487 -68.6485 -68.6475
    -8.5741  -8.2888   2.7788   3.0446   3.3133   3.6302   3.7612   3.8218
     4.2717   4.4086   4.5192   4.7099   4.8834   5.3525   6.0648   6.6232
     7.6300   8.0236  14.0675  15.9989  16.3158  17.3607  19.4280  21.0462
    22.0228  22.9762  24.6294  27.2028  27.9488  28.8673  31.7899  33.2672
    34.3731  34.9826  36.0785  36.4301  37.2736  37.8086  38.9980  40.4126
    40.5447  41.0150

          k = 0.4500 0.2598 0.0000 (  2503 PWs)   bands (ev):

  -114.3169-114.3166 -68.6538 -68.6527 -68.6490 -68.6486 -68.6485 -68.6475
    -8.5450  -8.2892   2.7987   3.0268   3.3177   3.6637   3.7434   3.8454
     4.2839   4.4230   4.5214   4.6583   4.9479   5.3165   6.0003   6.5723
     7.5633   7.9952  14.3066  15.7952  16.2980  17.3518  19.3733  21.0796
    21.9887  23.0018  24.6235  27.2446  27.8647  29.1084  31.7320  33.3537
    34.1506  34.9159  36.1350  36.4186  37.1901  37.9002  39.7212  40.1780
    41.2209  41.6430

          k = 0.4750 0.2742 0.0000 (  2502 PWs)   bands (ev):

  -114.3169-114.3166 -68.6538 -68.6527 -68.6491 -68.6485 -68.6485 -68.6475
    -8.5264  -8.2904   2.8153   3.0124   3.3203   3.6880   3.7292   3.8599
     4.2901   4.4324   4.5228   4.6152   5.0250   5.2655   5.9667   6.5407
     7.5200   7.9777  14.4913  15.6307  16.2853  17.3473  19.3397  21.1066
    21.9674  23.0181  24.6176  27.2669  27.8188  29.2659  31.6954  33.4961
    33.9123  34.8512  36.1476  36.4503  37.1416  37.9550  39.9062  40.6239
    41.8114  42.1077

          k = 0.5000 0.2887 0.0000 (  2510 PWs)   bands (ev):

  -114.3170-114.3167 -68.6542 -68.6527 -68.6495 -68.6487 -68.6486 -68.6474
    -8.5199  -8.2909   2.8220   3.0063   3.3212   3.6984   3.7224   3.8648
     4.2920   4.4357   4.5233   4.5993   5.0677   5.2317   5.9567   6.5300
     7.5050   7.9719  14.5664  15.5622  16.2807  17.3444  19.3282  21.1167
    21.9602  23.0236  24.6153  27.2734  27.8048  29.3209  31.6827  33.6862
    33.6879  34.8250  36.1471  36.4692  37.1256  37.9731  39.8576  41.4090
    41.4940  42.1745

          k = 0.5083 0.2742 0.0000 (  2506 PWs)   bands (ev):

  -114.3168-114.3167 -68.6538 -68.6528 -68.6493 -68.6487 -68.6485 -68.6475
    -8.5194  -8.2909   2.8233   3.0095   3.3206   3.6966   3.7233   3.8660
     4.2917   4.4342   4.5239   4.5991   5.0684   5.2333   5.9557   6.5250
     7.5024   7.9669  14.5744  15.5703  16.2812  17.3460  19.3287  21.1180
    21.9350  23.0107  24.6265  27.2881  27.8226  29.3140  31.6780  33.6911
    33.7055  34.8075  36.1525  36.4630  37.0962  37.9689  39.9040  41.2365
    41.3664  42.2931

          k = 0.5167 0.2598 0.0000 (  2500 PWs)   bands (ev):

  -114.3168-114.3166 -68.6538 -68.6527 -68.6492 -68.6487 -68.6483 -68.6471
    -8.5176  -8.2909   2.8274   3.0185   3.3189   3.6912   3.7262   3.8694
     4.2908   4.4301   4.5254   4.5986   5.0701   5.2384   5.9519   6.5106
     7.4948   7.9523  14.5991  15.5944  16.2826  17.3481  19.3298  21.1219
    21.8629  22.9727  24.6564  27.3315  27.8780  29.2946  31.6639  33.7008
    33.7625  34.7557  36.1688  36.4446  37.0143  37.9554  40.0350  40.9081
    41.0902  42.5012

          k = 0.5250 0.2454 0.0000 (  2500 PWs)   bands (ev):

  -114.3168-114.3166 -68.6538 -68.6527 -68.6492 -68.6487 -68.6483 -68.6472
    -8.5146  -8.2910   2.8341   3.0334   3.3161   3.6828   3.7309   3.8745
     4.2892   4.4236   4.5280   4.5976   5.0729   5.2464   5.9444   6.4883
     7.4821   7.9285  14.6388  15.6335  16.2849  17.3507  19.3315  21.1279
    21.7518  22.9122  24.6950  27.4015  27.9706  29.2659  31.6409  33.7154
    33.8533  34.6707  36.1958  36.4147  36.8955  37.9321  40.2354  40.5516
    40.7620  42.5897

          k = 0.5333 0.2309 0.0000 (  2508 PWs)   bands (ev):

  -114.3169-114.3167 -68.6540 -68.6528 -68.6493 -68.6489 -68.6485 -68.6473
    -8.5105  -8.2911   2.8433   3.0540   3.3126   3.6718   3.7374   3.8809
     4.2870   4.4149   4.5314   4.5957   5.0765   5.2570   5.9311   6.4611
     7.4641   7.8965  14.6931  15.6862  16.2880  17.3529  19.3337  21.1348
    21.6131  22.8329  24.7297  27.4947  28.1022  29.2330  31.6100  33.7318
    33.9731  34.5564  36.2332  36.3744  36.7564  37.8971  40.1963  40.4127
    40.4890  42.7521

          k = 0.5417 0.2165 0.0000 (  2508 PWs)   bands (ev):

  -114.3170-114.3166 -68.6544 -68.6528 -68.6493 -68.6490 -68.6483 -68.6472
    -8.5053  -8.2913   2.8548   3.0804   3.3086   3.6589   3.7456   3.8881
     4.2843   4.4047   4.5356   4.5929   5.0809   5.2702   5.9097   6.4330
     7.4408   7.8575  14.7616  15.7507  16.2919  17.3565  19.3365  21.1386
    21.4609  22.7395  24.7491  27.6077  28.2743  29.2023  31.5725  33.7431
    34.1163  34.4224  36.2799  36.3251  36.6106  37.8484  39.8529  40.0591
    40.7793  42.9220

          k = 0.5500 0.2021 0.0000 (  2504 PWs)   bands (ev):

  -114.3168-114.3167 -68.6543 -68.6529 -68.6490 -68.6488 -68.6485 -68.6472
    -8.4990  -8.2915   2.8682   3.1127   3.3044   3.6447   3.7553   3.8959
     4.2809   4.3934   4.5402   4.5888   5.0860   5.2849   5.8770   6.4084
     7.4123   7.8126  14.8421  15.8249  16.2963  17.3618  19.3406  21.1201
    21.3222  22.6370  24.7445  27.7368  28.4837  29.1816  31.5295  33.7307
    34.2759  34.2897  36.2684  36.3326  36.4685  37.7822  39.5286  39.7050
    41.1000  43.1037

          k = 0.5583 0.1876 0.0000 (  2500 PWs)   bands (ev):

  -114.3168-114.3166 -68.6543 -68.6527 -68.6489 -68.6487 -68.6484 -68.6472
    -8.4918  -8.2920   2.8834   3.1502   3.3005   3.6294   3.7665   3.9041
     4.2770   4.3815   4.5450   4.5832   5.0915   5.3010   5.8305   6.3916
     7.3787   7.7631  14.9343  15.9060  16.3013  17.3653  19.3454  21.0231
    21.2605  22.5304  24.7110  27.8784  28.7203  29.1838  31.4827  33.6584
    34.1992  34.4451  36.2057  36.3201  36.4035  37.6942  39.2298  39.3549
    41.4417  43.3127

          k = 0.5667 0.1732 0.0000 (  2504 PWs)   bands (ev):

  -114.3168-114.3167 -68.6543 -68.6528 -68.6490 -68.6487 -68.6485 -68.6476
    -8.4836  -8.2927   2.8996   3.1928   3.2972   3.6134   3.7792   3.9125
     4.2726   4.3692   4.5496   4.5761   5.0973   5.3172   5.7699   6.3851
     7.3403   7.7103  15.0349  15.9914  16.3064  17.3675  19.3512  20.8651
    21.2627  22.4249  24.6470  28.0293  28.9408  29.2511  31.4333  33.5018
    34.1785  34.6166  36.1388  36.1965  36.4610  37.5792  38.9637  39.0129
    41.8000  43.4868

          k = 0.5750 0.1588 0.0000 (  2506 PWs)   bands (ev):

  -114.3168-114.3168 -68.6541 -68.6529 -68.6491 -68.6489 -68.6484 -68.6480
    -8.4746  -8.2937   2.9165   3.2403   3.2951   3.5970   3.7933   3.9212
     4.2676   4.3571   4.5532   4.5672   5.1035   5.3332   5.6965   6.3894
     7.2980   7.6552  15.1441  16.0784  16.3117  17.3668  19.3580  20.6953
    21.2842  22.3256  24.5534  28.1869  29.0574  29.4718  31.3827  33.2831
    34.2099  34.7830  36.0690  36.0796  36.5199  37.4347  38.6830  38.7361
    42.1707  43.2477

          k = 0.5833 0.1443 0.0000 (  2502 PWs)   bands (ev):

  -114.3167-114.3167 -68.6541 -68.6529 -68.6490 -68.6489 -68.6482 -68.6480
    -8.4648  -8.2952   2.9335   3.2921   3.2947   3.5803   3.8089   3.9303
     4.2620   4.3456   4.5552   4.5564   5.1099   5.3481   5.6135   6.4038
     7.2529   7.5984  15.2605  16.1646  16.3169  17.3621  19.3657  20.5277
    21.3142  22.2373  24.4327  28.3490  29.1134  29.7993  31.3323  33.0299
    34.2694  34.9360  35.9729  35.9977  36.5701  37.2639  38.3714  38.5488
    42.5521  43.1753

          k = 0.5917 0.1299 0.0000 (  2496 PWs)   bands (ev):

  -114.3167-114.3167 -68.6539 -68.6529 -68.6489 -68.6488 -68.6481 -68.6479
    -8.4544  -8.2970   2.9499   3.2964   3.3478   3.5637   3.8260   3.9399
     4.2560   4.3348   4.5438   4.5544   5.1168   5.3610   5.5246   6.4268
     7.2064   7.5403  15.3822  16.2477  16.3218  17.3507  19.3745  20.3676
    21.3500  22.1645  24.2885  28.5139  29.1665  30.1720  31.2830  32.7571
    34.3445  35.0662  35.8775  35.9246  36.6011  37.0779  38.0873  38.3968
    42.9415  43.1157

          k = 0.6000 0.1155 0.0000 (  2496 PWs)   bands (ev):

  -114.3167-114.3166 -68.6538 -68.6528 -68.6491 -68.6488 -68.6483 -68.6479
    -8.4434  -8.2995   2.9649   3.3009   3.4061   3.5472   3.8448   3.9505
     4.2495   4.3252   4.5291   4.5494   5.1241   5.3710   5.4337   6.4572
     7.1604   7.4808  15.5076  16.3258  16.3262  17.3294  19.3843  20.2178
    21.3907  22.1114  24.1243  28.6802  29.2296  30.5721  31.2358  32.4726
    34.4290  35.1627  35.7930  35.8473  36.5958  36.8951  37.8464  38.2723
    43.0732  43.3371

          k = 0.6083 0.1010 0.0000 (  2496 PWs)   bands (ev):

  -114.3167-114.3166 -68.6538 -68.6529 -68.6490 -68.6488 -68.6484 -68.6480
    -8.4320  -8.3025   2.9781   3.3082   3.4655   3.5319   3.8652   3.9624
     4.2424   4.3169   4.5124   4.5385   5.1323   5.3451   5.3770   6.4939
     7.1165   7.4199  15.6354  16.3300  16.3978  17.2972  19.3951  20.0797
    21.4360  22.0813  23.9438  28.8471  29.3051  30.9920  31.1910  32.1818
    34.5193  35.2164  35.7197  35.7587  36.5325  36.7382  37.6697  38.1674
    43.0527  43.7368

          k = 0.6167 0.0866 0.0000 (  2494 PWs)   bands (ev):

  -114.3167-114.3166 -68.6538 -68.6527 -68.6490 -68.6488 -68.6484 -68.6480
    -8.4202  -8.3063   2.9889   3.3185   3.5059   3.5360   3.8875   3.9764
     4.2348   4.3104   4.4936   4.5198   5.1414   5.2634   5.3784   6.5362
     7.0766   7.3576  15.7647  16.3331  16.4627  17.2519  19.4070  19.9552
    21.4855  22.0767  23.7507  29.0138  29.3930  31.1480  31.4270  31.8889
    34.6123  35.2219  35.6505  35.6579  36.3978  36.6270  37.5699  38.0761
    43.0567  44.1380

          k = 0.6250 0.0722 0.0000 (  2484 PWs)   bands (ev):

  -114.3166-114.3165 -68.6534 -68.6528 -68.6488 -68.6487 -68.6481 -68.6478
    -8.4083  -8.3109   2.9974   3.3315   3.4948   3.5904   3.9118   3.9934
     4.2264   4.3059   4.4727   4.4918   5.1495   5.1951   5.3745   6.5832
     7.0418   7.2941  15.8945  16.3354  16.5201  17.1926  19.4209  19.8450
    21.5387  22.0991  23.5488  29.1804  29.4923  31.1033  31.6011  31.8717
    34.7053  35.1765  35.5263  35.6078  36.2032  36.5661  37.5359  37.9942
    43.0887  44.4585

          k = 0.6333 0.0577 0.0000 (  2484 PWs)   bands (ev):

  -114.3166-114.3165 -68.6533 -68.6526 -68.6487 -68.6487 -68.6482 -68.6481
    -8.3962  -8.3165   3.0035   3.3467   3.4794   3.6445   3.9379   4.0142
     4.2170   4.3037   4.4497   4.4546   5.1243   5.1757   5.3647   6.6343
     7.0128   7.2298  16.0229  16.3369  16.5687  17.1176  19.4361  19.7498
    21.5946  22.1482  23.3411  29.3465  29.6011  31.0381  31.3385  32.3178
    34.7954  35.0797  35.4072  35.5687  35.9717  36.5425  37.5431  37.9194
    43.1493  44.3751

          k = 0.6417 0.0433 0.0000 (  2484 PWs)   bands (ev):

  -114.3166-114.3165 -68.6533 -68.6527 -68.6487 -68.6487 -68.6482 -68.6482
    -8.3842  -8.3231   3.0076   3.3635   3.4636   3.6913   3.9660   4.0386
     4.2061   4.3041   4.4113   4.4247   5.0822   5.1909   5.3489   6.6892
     6.9883   7.1670  16.1494  16.3379  16.6063  17.0309  19.4532  19.6696
    21.6516  22.2227  23.1318  29.5120  29.7178  30.8800  31.1758  32.7527
    34.8800  34.9476  35.3090  35.5380  35.7262  36.5382  37.5716  37.8509
    43.2402  44.2344

          k = 0.6500 0.0289 0.0000 (  2484 PWs)   bands (ev):

  -114.3166-114.3165 -68.6530 -68.6527 -68.6488 -68.6487 -68.6483 -68.6483
    -8.3724  -8.3308   3.0100   3.3810   3.4478   3.7271   3.9956   4.0626
     4.1935   4.3077   4.3702   4.3979   5.0520   5.2121   5.3274   6.7472
     6.9636   7.1110  16.2718  16.3401  16.6248  16.9416  19.4729  19.6047
    21.7061  22.3201  22.9264  29.6769  29.8400  30.6226  31.1209  33.1475
    34.8274  34.9572  35.2278  35.4444  35.5492  36.5399  37.6095  37.7888
    43.3604  44.0593

          k = 0.6583 0.0144 0.0000 (  2484 PWs)   bands (ev):

  -114.3166-114.3164 -68.6529 -68.6526 -68.6489 -68.6488 -68.6483 -68.6482
    -8.3609  -8.3397   3.0112   3.3986   3.4319   3.7497   4.0262   4.0734
     4.1828   4.3147   4.3443   4.3700   5.0343   5.2380   5.3006   6.8081
     6.9273   7.0732  16.3325  16.4006  16.6020  16.8738  19.4951  19.5553
    21.7510  22.4372  22.7340  29.8397  29.9649  30.3413  31.1012  33.4377
    34.7984  35.0243  35.1568  35.2043  35.5303  36.5409  37.6502  37.7342
    43.5085  43.8703

          k = 0.6667 0.0000 0.0000 (  2484 PWs)   bands (ev):

  -114.3165-114.3165 -68.6527 -68.6527 -68.6487 -68.6487 -68.6487 -68.6483
    -8.3499  -8.3499   3.0115   3.4156   3.4156   3.7575   4.0565   4.0565
     4.1801   4.3218   4.3453   4.3453   5.0285   5.2690   5.2690   6.8714
     6.8714   7.0616  16.3340  16.5158  16.5158  16.8531  19.5207  19.5207
    21.7713  22.5707  22.5707  29.9684  30.0895  30.0895  31.0959  33.5385
    34.9465  34.9465  35.0960  35.0960  35.5283  36.5404  37.6897  37.6897
    43.6817  43.6817

          k = 0.6333 0.0000 0.0000 (  2488 PWs)   bands (ev):

  -114.3166-114.3165 -68.6532 -68.6527 -68.6490 -68.6487 -68.6484 -68.6483
    -8.3743  -8.3295   3.0108   3.3805   3.4461   3.7232   3.9860   4.1090
     4.1763   4.2752   4.3751   4.4104   5.0531   5.1957   5.3468   6.7244
     7.0037   7.0920  16.2232  16.3336  16.7377  16.8899  19.4945  19.5826
    21.6428  22.4319  22.8705  29.4668  30.3236  30.3472  31.1136  33.3047
    34.4737  34.9886  35.2057  35.5242  35.6226  36.5665  37.6571  37.7562
    43.3361  44.0913

          k = 0.6000 0.0000 0.0000 (  2490 PWs)   bands (ev):

  -114.3166-114.3166 -68.6534 -68.6525 -68.6490 -68.6487 -68.6486 -68.6483
    -8.4045  -8.3121   3.0099   3.3371   3.4701   3.6325   3.9400   4.1280
     4.1656   4.2324   4.4482   4.4840   5.1144   5.1322   5.4481   6.5607
     7.1414   7.1617  15.8650  16.3352  16.9413  16.9547  19.5211  19.6614
    21.3088  22.5306  23.1893  28.9083  30.5128  30.6646  31.1666  32.8966
    34.0410  34.9432  35.3252  35.4879  36.0835  36.7907  37.7979  37.8458
    43.0401  44.5437

          k = 0.5667 0.0000 0.0000 (  2482 PWs)   bands (ev):

  -114.3165-114.3165 -68.6534 -68.6523 -68.6488 -68.6483 -68.6481 -68.6481
    -8.4408  -8.2985   3.0099   3.2767   3.4862   3.5348   3.9132   4.0876
     4.1541   4.2350   4.5260   4.5474   5.0309   5.2621   5.5781   6.3941
     7.2561   7.2821  15.4759  16.3411  17.0320  17.1227  19.5925  19.7598
    20.9267  22.7184  23.5003  28.3675  30.6272  30.9264  31.2821  32.4665
    33.6690  34.9793  35.3912  35.4795  36.1193  36.9955  37.8096  38.5472
    42.7129  44.5567

          k = 0.5333 0.0000 0.0000 (  2488 PWs)   bands (ev):

  -114.3167-114.3165 -68.6536 -68.6525 -68.6487 -68.6483 -68.6481 -68.6481
    -8.4832  -8.2894   3.0117   3.1949   3.4631   3.4931   3.8876   4.0247
     4.1440   4.2544   4.5394   4.6613   4.9492   5.4205   5.7414   6.2341
     7.3675   7.4234  15.0686  16.3516  17.1223  17.2739  19.6929  19.8796
    20.5736  22.9352  23.7813  27.8483  30.6507  31.0502  31.5104  32.0462
    33.3765  35.1145  35.2470  35.6699  36.0465  37.0225  37.7896  39.5564
    42.1276  44.0581

          k = 0.5000 0.0000 0.0000 (  2498 PWs)   bands (ev):

  -114.3168-114.3165 -68.6537 -68.6528 -68.6489 -68.6485 -68.6481 -68.6480
    -8.5313  -8.2850   3.0156   3.1042   3.4167   3.4893   3.8570   3.9628
     4.1361   4.2735   4.5375   4.7763   4.8725   5.5870   5.9389   6.0929
     7.4906   7.5631  14.6521  16.3656  17.2297  17.3842  19.7733  20.0243
    20.3267  23.1584  24.0155  27.3535  30.5912  31.0558  31.6472  31.7868
    33.1908  35.0668  35.3405  35.9080  35.9410  37.0055  37.7417  40.5953
    41.2341  43.5223

          k = 0.4667 0.0000 0.0000 (  2500 PWs)   bands (ev):

  -114.3170-114.3164 -68.6537 -68.6526 -68.6491 -68.6487 -68.6477 -68.6475
    -8.5848  -8.2855   3.0204   3.0218   3.3838   3.4738   3.8193   3.9080
     4.1309   4.2887   4.5295   4.8006   4.8794   5.7558   5.9880   6.1621
     7.6213   7.6995  14.2325  16.3803  17.3579  17.4375  19.7284  20.1960
    20.3183  23.3731  24.1907  26.8856  30.4781  30.9738  31.2750  32.0341
    33.1319  34.8827  35.5831  35.8526  36.1737  36.9859  37.6823  40.2318
    41.3711  43.2700

          k = 0.4333 0.0000 0.0000 (  2513 PWs)   bands (ev):

  -114.3172-114.3166 -68.6543 -68.6527 -68.6491 -68.6488 -68.6479 -68.6476
    -8.6426  -8.2909   2.9517   3.0302   3.3569   3.4473   3.7746   3.8595
     4.1288   4.2976   4.5202   4.7421   4.9440   5.9294   5.9430   6.3987
     7.7560   7.8309  13.8145  16.3885  17.4117  17.5116  19.6345  20.3960
    20.4972  23.5666  24.3005  26.4464  30.3482  30.8156  30.9326  32.2121
    33.1918  34.7277  35.5144  36.0543  36.3903  36.9747  37.6632  39.2624
    41.4108  43.2723

          k = 0.4000 0.0000 0.0000 (  2525 PWs)   bands (ev):

  -114.3173-114.3168 -68.6546 -68.6530 -68.6492 -68.6491 -68.6480 -68.6477
    -8.7039  -8.3007   2.9013   3.0406   3.3325   3.4128   3.7238   3.8128
     4.1302   4.2982   4.5118   4.6974   4.9576   5.9767   6.1109   6.6378
     7.8915   7.9558  13.4012  16.3788  17.3073  17.6948  19.6205  20.6254
    20.7471  23.7297  24.3431  26.0389  30.2306  30.6024  30.6311  32.2996
    33.3269  34.6341  35.2486  36.3715  36.3859  36.9754  37.7477  38.4844
    40.9897  42.4193

          k = 0.3667 0.0000 0.0000 (  2521 PWs)   bands (ev):

  -114.3173-114.3167 -68.6544 -68.6528 -68.6490 -68.6488 -68.6478 -68.6476
    -8.7674  -8.3145   2.8695   3.0526   3.3090   3.3745   3.6688   3.7616
     4.1351   4.2907   4.5049   4.6694   4.9259   6.0852   6.3022   6.8716
     8.0248   8.0734  12.9949  16.3299  17.1590  17.9111  19.7090  20.8848
    21.0281  23.8599  24.3214  25.6661  30.1131  30.3561  30.4117  32.2819
    33.4726  34.6273  34.8797  36.0565  36.6504  36.9868  37.5305  38.4437
    40.4914  41.3884

          k = 0.3333 0.0000 0.0000 (  2503 PWs)   bands (ev):

  -114.3170-114.3166 -68.6544 -68.6524 -68.6483 -68.6483 -68.6472 -68.6468
    -8.8317  -8.3315   2.8552   3.0653   3.2857   3.3365   3.6114   3.7005
     4.1434   4.2788   4.4994   4.6564   4.8700   6.2481   6.5036   7.0937
     8.1535   8.1827  12.5983  16.2087  17.0245  18.1641  19.8838  21.1715
    21.3170  23.9661  24.2427  25.3325  29.9284  30.0907  30.3591  32.1447
    33.5560  34.4133  34.7181  35.5183  36.8161  37.0264  37.1521  38.9346
    40.0123  40.3971

          k = 0.3000 0.0000 0.0000 (  2517 PWs)   bands (ev):

  -114.3171-114.3168 -68.6547 -68.6521 -68.6488 -68.6481 -68.6478 -68.6470
    -8.8955  -8.3510   2.8560   3.0776   3.2623   3.3016   3.5535   3.6275
     4.1547   4.2672   4.4951   4.6522   4.8090   6.4452   6.7145   7.2994
     8.2748   8.2831  12.2110  15.9969  16.9435  18.4537  20.1232  21.4809
    21.5884  24.0720  24.1168  25.0434  29.7052  29.8086  30.4436  31.8723
    33.4964  33.8626  34.8406  35.0329  36.7639  36.9083  37.1259  39.4854
    39.5329  39.6456

          k = 0.2667 0.0000 0.0000 (  2507 PWs)   bands (ev):

  -114.3171-114.3166 -68.6540 -68.6520 -68.6484 -68.6478 -68.6475 -68.6468
    -8.9573  -8.3719   2.8694   3.0879   3.2390   3.2726   3.4973   3.5464
     4.1684   4.2589   4.4916   4.6480   4.7573   6.6637   6.9337   7.4861
     8.3741   8.3869  11.8355  15.7241  16.9099  18.7824  20.4127  21.8039
    21.8135  23.9568  24.2160  24.8076  29.4871  29.5061  30.6085  31.4715
    33.2424  33.2652  34.5014  35.2002  36.4682  36.8135  37.2084  38.9488
    39.1991  39.8503

          k = 0.2333 0.0000 0.0000 (  2509 PWs)   bands (ev):

  -114.3172-114.3166 -68.6542 -68.6522 -68.6482 -68.6480 -68.6471 -68.6465
    -9.0157  -8.3934   2.8924   3.0944   3.2160   3.2510   3.4444   3.4614
     4.1836   4.2543   4.4884   4.6298   4.7289   6.8937   7.1583   7.6531
     8.4554   8.4880  11.4717  15.4217  16.9011  19.1490  20.7373  21.9669
    22.1246  23.7764  24.4362  24.6380  29.1670  29.2818  30.7977  30.9863
    32.6831  32.8139  34.2019  35.5016  35.9045  36.8608  37.2489  38.7179
    38.7892  39.5401

          k = 0.2000 0.0000 0.0000 (  2513 PWs)   bands (ev):

  -114.3173-114.3166 -68.6540 -68.6522 -68.6482 -68.6478 -68.6472 -68.6466
    -9.0694  -8.4143   2.9218   3.0959   3.1938   3.2369   3.3791   3.3965
     4.1995   4.2528   4.4855   4.5965   4.7243   7.1265   7.3831   7.8036
     8.5268   8.5767  11.1205  15.1154  16.9029  19.5501  21.0799  22.0484
    22.4161  23.5901  24.5556  24.7504  28.7680  29.0879  30.4944  30.8819
    32.2569  32.2733  33.9946  35.1728  35.8244  37.0109  37.2589  38.3563
    38.7514  39.3388

          k = 0.1667 0.0000 0.0000 (  2531 PWs)   bands (ev):

  -114.3175-114.3168 -68.6547 -68.6526 -68.6482 -68.6478 -68.6473 -68.6468
    -9.1170  -8.4338   2.9544   3.0924   3.1728   3.2262   3.3073   3.3547
     4.2152   4.2532   4.4827   4.5610   4.7294   7.3532   7.5962   7.9478
     8.5876   8.6520  10.7829  14.8207  16.9079  19.9796  21.4083  22.0957
    22.6416  23.4110  24.5857  25.1477  28.2976  28.9017  30.0621  30.6516
    31.6796  32.2059  33.8523  34.3959  36.1467  37.2031  37.2512  37.9199
    38.9104  39.2510

          k = 0.1333 0.0000 0.0000 (  2535 PWs)   bands (ev):

  -114.3175-114.3169 -68.6551 -68.6526 -68.6480 -68.6478 -68.6472 -68.6467
    -9.1575  -8.4511   2.9869   3.0860   3.1535   3.2015   3.2646   3.3199
     4.2297   4.2547   4.4801   4.5300   4.7366   7.5642   7.7741   8.1082
     8.6378   8.7132  10.4606  14.5531  16.9133  20.4259  21.6445  22.1999
    22.7751  23.2505  24.7344  25.5999  27.7886  28.7196  29.7021  30.1965
    31.0932  32.4398  33.6593  33.7562  36.4532  37.2355  37.3764  37.4767
    39.1392  39.2834

          k = 0.1000 0.0000 0.0000 (  2535 PWs)   bands (ev):

  -114.3174-114.3170 -68.6551 -68.6526 -68.6479 -68.6478 -68.6470 -68.6466
    -9.1900  -8.4653   3.0166   3.0789   3.1366   3.1586   3.2557   3.2928
     4.2422   4.2566   4.4776   4.5055   4.7433   7.7479   7.8953   8.3040
     8.6770   8.7600  10.1554  14.3257  16.9177  20.8683  21.7206  22.4310
    22.8233  23.1190  24.9537  26.0684  27.3195  28.5462  29.3710  29.7160
    30.5816  32.6451  33.1282  33.6919  36.7294  37.0365  37.2235  37.4868
    39.3963  39.4274

          k = 0.0667 0.0000 0.0000 (  2543 PWs)   bands (ev):

  -114.3175-114.3171 -68.6557 -68.6530 -68.6481 -68.6477 -68.6468 -68.6467
    -9.2137  -8.4760   3.0409   3.0722   3.1217   3.1227   3.2560   3.2734
     4.2517   4.2583   4.4756   4.4879   4.7484   7.8919   7.9670   8.5210
     8.7051   8.7925   9.8741  14.1504  16.9205  21.2710  21.7162  22.6941
    22.8130  23.0270  25.1408  26.4978  26.9998  28.4157  29.0245  29.2808
    30.2143  32.3127  33.2635  33.6508  36.6427  36.9603  37.2069  37.5272
    39.6347  39.6421

          k = 0.0333 0.0000 0.0000 (  2541 PWs)   bands (ev):

  -114.3175-114.3171 -68.6558 -68.6533 -68.6477 -68.6475 -68.6468 -68.6468
    -9.2282  -8.4825   3.0577   3.0667   3.0998   3.1127   3.2574   3.2619
     4.2578   4.2594   4.4743   4.4774   4.7517   7.9846   8.0048   8.7124
     8.7301   8.8114   9.6409  14.0408  16.9223  21.5737  21.6990  22.7757
    22.8908  22.9780  25.2075  26.8055  26.9026  28.4086  28.7041  28.9021
    30.0127  31.9728  33.5159  33.6280  36.3458  37.1268  37.1972  37.5191
    39.8218  39.8277

          k = 0.0000 0.0000 0.0000 (  2539 PWs)   bands (ev):

  -114.3175-114.3170 -68.6558 -68.6533 -68.6475 -68.6475 -68.6468 -68.6468
[...]
     4.4333   4.4429   4.4916   4.5939   4.9966   5.1305   6.6389   6.8164
     7.6695   7.7396  14.2141  15.1363  16.7896  17.4104  19.2646  21.2204
    22.1316  22.8216  23.4347  27.0117  29.7235  29.9390  30.0763  33.3846
    33.9276  35.0671  35.2719  35.9528  38.3749  38.3827  40.2211  41.5690
    41.7420  41.9157

          k = 0.5000 0.2887 0.1550 (  2494 PWs)   bands (ev):

  -114.3167-114.3166 -68.6540 -68.6528 -68.6484 -68.6483 -68.6481 -68.6472
    -8.4819  -8.3196   2.7218   2.8127   3.3831   3.6336   3.6714   3.7635
     4.4167   4.4416   4.4958   4.5956   5.0005   5.1441   6.5436   6.7710
     7.6586   7.7781  14.2383  15.2073  16.7293  17.4101  19.2455  21.2739
    22.1030  22.8544  23.4531  27.1603  29.7193  29.7698  29.9471  33.4039
    34.1688  35.0745  35.2922  36.0251  38.0975  38.3172  40.1304  41.6242
    41.7341  41.9291

          k = 0.5000 0.2887 0.1395 (  2492 PWs)   bands (ev):

  -114.3167-114.3165 -68.6539 -68.6526 -68.6484 -68.6484 -68.6481 -68.6472
    -8.4887  -8.3143   2.7375   2.8413   3.3715   3.6402   3.6790   3.7812
     4.3997   4.4405   4.4999   4.5969   5.0058   5.1577   6.4510   6.7286
     7.6433   7.8135  14.2705  15.2729  16.6684  17.4065  19.2378  21.2984
    22.0767  22.8848  23.5182  27.2666  29.4827  29.8298  29.8687  33.4345
    34.3881  35.1039  35.2705  36.0957  37.8381  38.2571  40.0492  41.6938
    41.7125  41.9502

          k = 0.5000 0.2887 0.1240 (  2500 PWs)   bands (ev):

  -114.3169-114.3166 -68.6543 -68.6526 -68.6487 -68.6486 -68.6481 -68.6472
    -8.4950  -8.3095   2.7528   2.8696   3.3611   3.6476   3.6865   3.7977
     4.3826   4.4395   4.5039   4.5979   5.0123   5.1708   6.3620   6.6894
     7.6246   7.8458  14.3082  15.3325  16.6067  17.3990  19.2386  21.2978
    22.0528  22.9127  23.6231  27.3311  29.2351  29.7241  30.0194  33.4715
    34.5665  35.1710  35.1975  36.1635  37.6137  38.2013  39.9784  41.6794
    41.7701  41.9767

          k = 0.5000 0.2887 0.1085 (  2504 PWs)   bands (ev):

  -114.3170-114.3165 -68.6544 -68.6525 -68.6492 -68.6487 -68.6483 -68.6471
    -8.5006  -8.3052   2.7673   2.8972   3.3518   3.6556   3.6938   3.8127
     4.3656   4.4386   4.5078   4.5985   5.0200   5.1834   6.2781   6.6537
     7.6039   7.8747  14.3503  15.3858  16.5457  17.3899  19.2466  21.2794
    22.0315  22.9378  23.7586  27.3604  28.9841  29.6305  30.2156  33.5116
    34.6862  35.0681  35.2899  36.2274  37.4365  38.1511  39.9201  41.6377
    41.8478  42.0078

          k = 0.5000 0.2887 0.0930 (  2508 PWs)   bands (ev):

  -114.3169-114.3167 -68.6542 -68.6528 -68.6493 -68.6487 -68.6486 -68.6472
    -8.5056  -8.3014   2.7807   2.9232   3.3437   3.6640   3.7006   3.8260
     4.3493   4.4378   4.5115   4.5989   5.0287   5.1948   6.2008   6.6221
     7.5825   7.9000  14.3940  15.4324  16.4866  17.3807  19.2599  21.2505
    22.0128  22.9600  23.9140  27.3640  28.7351  29.5488  30.4470  33.5515
    34.7525  34.8844  35.4508  36.2863  37.3091  38.1054  39.8759  41.5916
    41.9235  42.0412

          k = 0.5000 0.2887 0.0775 (  2514 PWs)   bands (ev):

  -114.3170-114.3168 -68.6543 -68.6530 -68.6493 -68.6489 -68.6486 -68.6475
    -8.5099  -8.2982   2.7926   2.9468   3.3368   3.6725   3.7067   3.8376
     4.3339   4.4371   4.5148   4.5991   5.0378   5.2052   6.1314   6.5946
     7.5618   7.9217  14.4374  15.4719  16.4311  17.3710  19.2754  21.2173
    21.9968  22.9791  24.0783  27.3514  28.4957  29.4794  30.7014  33.5887
    34.6577  34.7868  35.6266  36.3389  37.2255  38.0658  39.8466  41.5447
    41.9950  42.0754

          k = 0.5000 0.2887 0.0620 (  2516 PWs)   bands (ev):

  -114.3170-114.3168 -68.6542 -68.6532 -68.6493 -68.6489 -68.6487 -68.6476
    -8.5135  -8.2956   2.8028   2.9673   3.3312   3.6806   3.7121   3.8472
     4.3201   4.4366   4.5177   4.5992   5.0468   5.2142   6.0716   6.5717
     7.5429   7.9396  14.4783  15.5044  16.3814  17.3622  19.2915  21.1849
    21.9837  22.9950  24.2404  27.3309  28.2755  29.4224  30.9656  33.6218
    34.4060  34.8051  35.7948  36.3840  37.1754  38.0328  39.8327  41.5008
    42.0727  42.1077

          k = 0.5000 0.2887 0.0465 (  2508 PWs)   bands (ev):

  -114.3169-114.3167 -68.6539 -68.6527 -68.6493 -68.6487 -68.6487 -68.6475
    -8.5163  -8.2936   2.8111   2.9841   3.3268   3.6878   3.7164   3.8549
     4.3084   4.4362   4.5201   4.5993   5.0552   5.2217   6.0229   6.5536
     7.5270   7.9537  14.5145  15.5297  16.3396  17.3554  19.3065  21.1566
    21.9734  23.0074  24.3883  27.3089  28.0855  29.3781  31.2237  33.6492
    34.1511  34.8153  35.9404  36.4204  37.1477  38.0076  39.8330  41.4628
    41.8618  42.1274

          k = 0.5000 0.2887 0.0310 (  2506 PWs)   bands (ev):

  -114.3168-114.3167 -68.6538 -68.6527 -68.6493 -68.6487 -68.6486 -68.6475
    -8.5183  -8.2921   2.8171   2.9965   3.3237   3.6935   3.7197   3.8604
     4.2995   4.4359   4.5219   4.5993   5.0619   5.2272   5.9867   6.5406
     7.5150   7.9638  14.5424  15.5477  16.3077  17.3502  19.3183  21.1349
    21.9661  23.0164  24.5084  27.2902  27.9352  29.3463  31.4531  33.6695
    33.9205  34.8210  36.0524  36.4473  37.1336  37.9886  39.8426  41.4337
    41.6646  42.1546

          k = 0.5000 0.2887 0.0155 (  2506 PWs)   bands (ev):

  -114.3168-114.3167 -68.6538 -68.6528 -68.6493 -68.6487 -68.6486 -68.6475
    -8.5195  -8.2912   2.8207   3.0040   3.3218   3.6972   3.7217   3.8637
     4.2939   4.4357   4.5230   4.5993   5.0663   5.2305   5.9644   6.5327
     7.5075   7.9698  14.5602  15.5586  16.2875  17.3466  19.3258  21.1213
    21.9617  23.0218  24.5875  27.2777  27.8382  29.3272  31.6199  33.6819
    33.7515  34.8240  36.1230  36.4637  37.1274  37.9771  39.8534  41.4155
    41.5382  42.1724

          k = 0.5000 0.2887 0.0000 (  2510 PWs)   bands (ev):

  -114.3170-114.3167 -68.6542 -68.6527 -68.6495 -68.6487 -68.6486 -68.6474
    -8.5199  -8.2909   2.8220   3.0063   3.3212   3.6984   3.7224   3.8648
     4.2920   4.4357   4.5233   4.5993   5.0677   5.2317   5.9567   6.5300
     7.5050   7.9719  14.5664  15.5622  16.2807  17.3444  19.3282  21.1167
    21.9602  23.0236  24.6153  27.2734  27.8048  29.3209  31.6827  33.6862
    33.6879  34.8250  36.1471  36.4692  37.1256  37.9731  39.8576  41.4090
    41.4941  42.1755

          k = 0.6667-0.0000 0.3100 (  2532 PWs)   bands (ev):

  -114.3170-114.3170 -68.6542 -68.6542 -68.6489 -68.6489 -68.6487 -68.6487
    -8.3388  -8.3388   3.0300   3.0300   3.2624   3.2624   3.8355   3.8355
     4.2638   4.2638   4.8000   4.8000   5.0755   5.0755   6.0891   6.0891
     7.5524   7.5524  16.6969  16.6969  16.7594  16.7594  17.6340  17.6340
    24.3277  24.3277  24.7950  24.7950  28.1877  28.1877  32.4779  32.4779
    34.6760  34.6760  35.9774  35.9774  39.9221  39.9221  40.8999  40.8999
    43.0674  43.0674

          k = 0.6667 0.0000 0.2945 (  2532 PWs)   bands (ev):

  -114.3170-114.3170 -68.6542 -68.6542 -68.6489 -68.6489 -68.6488 -68.6487
    -8.3388  -8.3388   3.0321   3.0321   3.2381   3.2877   3.8360   3.8360
     4.2589   4.2686   4.7976   4.7976   5.0771   5.0771   6.0137   6.1643
     7.5483   7.5483  16.6780  16.7145  16.7554  16.7554  17.6458  17.6458
    24.0836  24.5823  24.7807  24.7807  28.2008  28.2008  32.4352  32.5229
    34.6712  34.6712  35.9876  35.9876  39.7298  40.0742  40.8212  40.8212
    43.1394  43.1406

          k = 0.6667 0.0000 0.2790 (  2508 PWs)   bands (ev):

  -114.3168-114.3168 -68.6536 -68.6536 -68.6484 -68.6484 -68.6483 -68.6483
    -8.3390  -8.3390   3.0388   3.0388   3.2150   3.3143   3.8375   3.8375
     4.2540   4.2733   4.7908   4.7908   5.0821   5.0821   5.9385   6.2388
     7.5362   7.5362  16.6581  16.7310  16.7458  16.7458  17.6812  17.6812
    23.8506  24.7387  24.7387  24.8472  28.2408  28.2408  32.3951  32.5706
    34.6575  34.6575  36.0176  36.0176  39.5145  40.1615  40.6135  40.6135
    43.2978  43.3245

          k = 0.6667 0.0000 0.2635 (  2499 PWs)   bands (ev):

  -114.3167-114.3167 -68.6532 -68.6532 -68.6483 -68.6483 -68.6482 -68.6482
    -8.3393  -8.3393   3.0493   3.0493   3.1930   3.3418   3.8399   3.8399
     4.2491   4.2778   4.7798   4.7798   5.0895   5.0895   5.8635   6.3123
     7.5164   7.5164  16.6370  16.7297  16.7297  16.7463  17.7368  17.7368
    23.6288  24.6706  24.6706  25.1216  28.3031  28.3031  32.3560  32.6209
    34.6364  34.6364  36.0649  36.0649  39.2864  40.1541  40.3273  40.3273
    43.0823  43.5547

          k = 0.6667 0.0000 0.2480 (  2493 PWs)   bands (ev):

  -114.3166-114.3166 -68.6530 -68.6530 -68.6483 -68.6483 -68.6482 -68.6482
    -8.3398  -8.3398   3.0638   3.0638   3.1723   3.3702   3.8432   3.8432
     4.2442   4.2823   4.7651   4.7651   5.0990   5.0990   5.7893   6.3846
     7.4893   7.4893  16.6150  16.7099  16.7099  16.7602  17.8103  17.8103
    23.4185  24.5793  24.5793  25.4052  28.3863  28.3863  32.3179  32.6742
    34.6102  34.6102  36.1265  36.1265  39.0526  40.0004  40.0004  40.0321
    42.9954  43.7614

          k = 0.6667 0.0000 0.2325 (  2505 PWs)   bands (ev):

  -114.3167-114.3167 -68.6534 -68.6534 -68.6485 -68.6485 -68.6485 -68.6484
    -8.3404  -8.3404   3.0817   3.0817   3.1528   3.3994   3.8475   3.8475
     4.2392   4.2866   4.7472   4.7472   5.1099   5.1099   5.7161   6.4551
     7.4555   7.4555  16.5922  16.6875  16.6875  16.7730  17.8985  17.8985
    23.2202  24.4682  24.4682  25.6971  28.4863  28.4863  32.2799  32.7304
    34.5813  34.5813  36.1987  36.1987  38.8171  39.6545  39.6545  39.8015
    43.0291  43.8975

          k = 0.6667 0.0000 0.2170 (  2511 PWs)   bands (ev):

  -114.3168-114.3168 -68.6537 -68.6537 -68.6486 -68.6486 -68.6486 -68.6485
    -8.3411  -8.3411   3.1032   3.1032   3.1345   3.4294   3.8529   3.8529
     4.2343   4.2908   4.7264   4.7264   5.1222   5.1222   5.6443   6.5235
     7.4158   7.4158  16.5686  16.6650  16.6650  16.7846  18.0002  18.0002
    23.0340  24.3406  24.3406  25.9970  28.6009  28.6009  32.2416  32.7895
    34.5522  34.5522  36.2778  36.2778  38.5837  39.3035  39.3035  39.4898
    43.1577  43.9649

          k = 0.6667 0.0000 0.2015 (  2511 PWs)   bands (ev):

  -114.3168-114.3168 -68.6537 -68.6537 -68.6487 -68.6487 -68.6487 -68.6484
    -8.3418  -8.3418   3.1175   3.1278   3.1278   3.4599   3.8596   3.8596
     4.2294   4.2947   4.7031   4.7031   5.1354   5.1354   5.5742   6.5896
     7.3712   7.3712  16.5447  16.6434  16.6434  16.7951  18.1135  18.1135
    22.8603  24.1999  24.1999  26.3041  28.7268  28.7268  32.2020  32.8514
    34.5249  34.5249  36.3593  36.3593  38.3546  38.9570  38.9570  39.1279
    43.3514  43.9898

          k = 0.6667 0.0000 0.1860 (  2502 PWs)   bands (ev):

  -114.3167-114.3167 -68.6536 -68.6536 -68.6485 -68.6485 -68.6484 -68.6483
    -8.3426  -8.3426   3.1018   3.1549   3.1549   3.4909   3.8677   3.8677
     4.2245   4.2985   4.6777   4.6777   5.1493   5.1493   5.5063   6.6528
     7.3228   7.3228  16.5206  16.6238  16.6238  16.8046  18.2364  18.2364
    22.6992  24.0494  24.0494  26.6177  28.8610  28.8610  32.1603  32.9160
    34.5011  34.5011  36.4376  36.4376  38.1317  38.6224  38.6224  38.7397
    43.5868  43.9912

          k = 0.6667 0.0000 0.1705 (  2508 PWs)   bands (ev):

  -114.3168-114.3168 -68.6536 -68.6536 -68.6487 -68.6487 -68.6487 -68.6484
    -8.3434  -8.3434   3.0873   3.1838   3.1838   3.5220   3.8773   3.8773
     4.2196   4.3020   4.6502   4.6502   5.1633   5.1633   5.4408   6.7128
     7.2715   7.2715  16.4966  16.6049  16.6049  16.8130  18.3660  18.3660
    22.5508  23.8914  23.8914  26.9367  29.0001  29.0001  32.1145  32.9822
    34.4821  34.4821  36.5044  36.5044  37.9163  38.3086  38.3086  38.3409
    43.8477  43.9772

          k = 0.6667 0.0000 0.1550 (  2514 PWs)   bands (ev):

  -114.3169-114.3169 -68.6539 -68.6539 -68.6487 -68.6487 -68.6487 -68.6485
    -8.3443  -8.3443   3.0741   3.2139   3.2139   3.5530   3.8885   3.8885
     4.2148   4.3053   4.6209   4.6209   5.1774   5.1774   5.3782   6.7692
     7.2187   7.2187  16.4730  16.5879  16.5879  16.8205  18.5009  18.5009
    22.4152  23.7290  23.7290  27.2599  29.1420  29.1420  32.0636  33.0503
    34.4694  34.4694  36.5478  36.5478  37.7101  37.9429  38.0280  38.0280
    43.9542  44.0950

          k = 0.6667 0.0000 0.1395 (  2508 PWs)   bands (ev):

  -114.3168-114.3168 -68.6538 -68.6538 -68.6487 -68.6486 -68.6486 -68.6484
    -8.3452  -8.3452   3.0622   3.2446   3.2446   3.5837   3.9017   3.9017
     4.2100   4.3083   4.5901   4.5901   5.1915   5.1915   5.3190   6.8216
     7.1657   7.1657  16.4502  16.5734  16.5734  16.8271  18.6396  18.6396
    22.2926  23.5650  23.5650  27.5864  29.2843  29.2843  32.0056  33.1192
    34.4646  34.4646  36.5490  36.5490  37.5147  37.5546  37.8002  37.8002
    43.9248  43.9283

          k = 0.6667 0.0000 0.1240 (  2508 PWs)   bands (ev):

  -114.3168-114.3168 -68.6539 -68.6539 -68.6487 -68.6487 -68.6487 -68.6484
    -8.3460  -8.3460   3.0515   3.2749   3.2749   3.6136   3.9168   3.9168
     4.2053   4.3111   4.5578   4.5578   5.2051   5.2051   5.2637   6.8697
     7.1135   7.1135  16.4284  16.5604  16.5604  16.8329  18.7794  18.7794
    22.1829  23.4017  23.4017  27.9142  29.4237  29.4237  31.9384  33.1878
    34.4686  34.4686  36.4864  36.4864  37.1823  37.3315  37.6458  37.6458
    43.8908  43.8919

          k = 0.6667 0.0000 0.1085 (  2502 PWs)   bands (ev):

  -114.3167-114.3167 -68.6537 -68.6537 -68.6486 -68.6486 -68.6486 -68.6483
    -8.3468  -8.3468   3.0421   3.3042   3.3042   3.6423   3.9341   3.9341
     4.2007   4.3136   4.5246   4.5246   5.2127   5.2181   5.2181   6.9131
     7.0636   7.0636  16.4081  16.5495  16.5495  16.8378  18.9178  18.9178
    22.0862  23.2426  23.2426  28.2415  29.5579  29.5579  31.8596  33.2550
    34.4832  34.4832  36.3538  36.3538  36.8331  37.1623  37.5711  37.5712
    43.8543  43.8543

          k = 0.6667 0.0000 0.0930 (  2493 PWs)   bands (ev):

  -114.3166-114.3166 -68.6533 -68.6533 -68.6485 -68.6485 -68.6484 -68.6484
    -8.3476  -8.3476   3.0340   3.3315   3.3315   3.6692   3.9535   3.9535
     4.1963   4.3157   4.4908   4.4908   5.1668   5.2303   5.2303   6.9515
     7.0172   7.0172  16.3897  16.5405  16.5405  16.8420  19.0518  19.0518
    22.0025  23.0907  23.0907  28.5653  29.6837  29.6837  31.7670  33.3195
    34.5099  34.5099  36.1706  36.1706  36.5127  37.0089  37.5568  37.5568
    43.8174  43.8174

          k = 0.6667 0.0000 0.0775 (  2499 PWs)   bands (ev):

  -114.3167-114.3167 -68.6534 -68.6534 -68.6488 -68.6488 -68.6487 -68.6485
    -8.3483  -8.3483   3.0271   3.3558   3.3558   3.6938   3.9745   3.9745
     4.1921   4.3176   4.4569   4.4569   5.1264   5.2412   5.2412   6.9754
     6.9754   6.9845  16.3734  16.5322  16.5322  16.8454  19.1769  19.1769
    21.9317  22.9495  22.9495  28.8820  29.7977  29.7977  31.6587  33.3792
    34.5497  34.5497  35.9628  35.9628  36.2277  36.8732  37.5749  37.5749
    43.7809  43.7809

          k = 0.6667 0.0000 0.0620 (  2502 PWs)   bands (ev):

  -114.3167-114.3167 -68.6536 -68.6536 -68.6488 -68.6488 -68.6487 -68.6485
    -8.3488  -8.3488   3.0215   3.3767   3.3767   3.7153   3.9965   3.9965
     4.1882   4.3191   4.4242   4.4242   5.0922   5.2506   5.2506   6.9394
     6.9394   7.0119  16.3596  16.5257  16.5257  16.8482  19.2895  19.2895
    21.8738  22.8238  22.8238  29.1862  29.8970  29.8970  31.5347  33.4323
    34.6047  34.6047  35.7510  35.7510  35.9843  36.7576  37.6060  37.6060
    43.7482  43.7482

          k = 0.6667 0.0000 0.0465 (  2493 PWs)   bands (ev):

  -114.3166-114.3166 -68.6532 -68.6532 -68.6487 -68.6487 -68.6486 -68.6485
    -8.3493  -8.3493   3.0171   3.3934   3.3934   3.7331   4.0183   4.0183
     4.1849   4.3203   4.3941   4.3941   5.0648   5.2585   5.2585   6.9104
     6.9104   7.0335  16.3486  16.5214  16.5214  16.8504  19.3853  19.3853
    21.8289  22.7185  22.7185  29.4695  29.9786  29.9786  31.3981  33.4768
    34.6768  34.6768  35.5472  35.5472  35.7885  36.6648  37.6388  37.6388
    43.7206  43.7206

          k = 0.6667 0.0000 0.0310 (  2499 PWs)   bands (ev):

  -114.3167-114.3167 -68.6532 -68.6532 -68.6489 -68.6489 -68.6489 -68.6486
    -8.3496  -8.3496   3.0140   3.4056   3.4056   3.7464   4.0375   4.0375
     4.1823   4.3211   4.3688   4.3688   5.0448   5.2641   5.2641   6.8889
     6.8889   7.0490  16.3405  16.5175  16.5175  16.8518  19.4584  19.4584
    21.7969  22.6382  22.6382  29.7163  30.0391  30.0391  31.2593  33.5102
    34.7656  34.7656  35.3583  35.3583  35.6449  36.5962  37.6658  37.6658
    43.6989  43.6989

          k = 0.6667 0.0000 0.0155 (  2490 PWs)   bands (ev):

  -114.3166-114.3166 -68.6528 -68.6528 -68.6488 -68.6488 -68.6487 -68.6485
    -8.3498  -8.3498   3.0121   3.4131   3.4131   3.7547   4.0513   4.0513
     4.1807   4.3217   4.3515   4.3515   5.0326   5.2677   5.2677   6.8758
     6.8758   7.0584  16.3356  16.5161  16.5161  16.8527  19.5049  19.5049
    21.7777  22.5879  22.5879  29.8981  30.0767  30.0767  31.1439  33.5313
    34.8696  34.8696  35.1934  35.1934  35.5574  36.5545  37.6836  37.6836
    43.6860  43.6860

          k = 0.6667 0.0000 0.0000 (  2484 PWs)   bands (ev):

  -114.3165-114.3165 -68.6527 -68.6527 -68.6487 -68.6487 -68.6487 -68.6483
    -8.3499  -8.3499   3.0115   3.4156   3.4156   3.7575   4.0565   4.0565
     4.1801   4.3218   4.3453   4.3453   5.0285   5.2690   5.2690   6.8714
     6.8714   7.0616  16.3340  16.5158  16.5158  16.8531  19.5207  19.5207
    21.7713  22.5707  22.5707  29.9684  30.0895  30.0895  31.0959  33.5385
    34.9465  34.9465  35.0960  35.0960  35.5283  36.5404  37.6897  37.6897
    43.6817  43.6817

     Writing all to output data dir ./TMP/zno.save/ :
     XML data file, pseudopotentials, collected wavefunctions

     init_run     :      0.75s CPU      0.79s WALL (       1 calls)
     electrons    :     77.60s CPU     83.08s WALL (       1 calls)

     Called by init_run:
     wfcinit      :      0.00s CPU      0.00s WALL (       1 calls)
     wfcinit:atom :      0.01s CPU      0.01s WALL (      46 calls)
     wfcinit:wfcr :      0.57s CPU      0.61s WALL (      46 calls)
     potinit      :      0.10s CPU      0.11s WALL (       1 calls)
     hinit0       :      0.44s CPU      0.45s WALL (       1 calls)

     Called by electrons:
     c_bands      :     77.59s CPU     83.07s WALL (       1 calls)
     v_of_rho     :      0.03s CPU      0.03s WALL (       1 calls)
     v_h          :      0.00s CPU      0.00s WALL (       1 calls)
     v_xc         :      0.03s CPU      0.03s WALL (       1 calls)
     newd         :      0.05s CPU      0.05s WALL (       1 calls)

     Called by c_bands:
     init_us_2    :      0.01s CPU      0.01s WALL (      46 calls)
     ccgdiagg     :     65.40s CPU     70.56s WALL (     274 calls)
     wfcrot       :      3.34s CPU      3.63s WALL (     274 calls)

     Called by sum_band:

     Called by *cgdiagg:
     h_psi        :     44.18s CPU     47.77s WALL (  169548 calls)
     s_psi        :      3.63s CPU      3.97s WALL (  338822 calls)

     Called by h_psi:
     h_psi:calbec :      3.16s CPU      3.41s WALL (  169548 calls)
     vloc_psi     :     35.99s CPU     38.92s WALL (  169548 calls)
     add_vuspsi   :      4.31s CPU      4.69s WALL (  169548 calls)
     hs_1psi      :     43.88s CPU     47.37s WALL (  169274 calls)
     s_1psi       :      5.38s CPU      5.79s WALL (  169274 calls)

     General routines
     calbec       :      5.96s CPU      6.51s WALL (  338822 calls)
     fft          :      0.03s CPU      0.03s WALL (      13 calls)
     ffts         :      0.01s CPU      0.01s WALL (       1 calls)
     fftw         :     30.25s CPU     32.69s WALL (  365948 calls)
     interpolate  :      0.01s CPU      0.01s WALL (       1 calls)
     davcio       :      0.01s CPU      0.02s WALL (      92 calls)

     Parallel routines

     PWSCF        :   1m19.00s CPU   1m27.47s WALL


   This run was terminated on:  21:34:41  26Mar2024            

=------------------------------------------------------------------------------=
   JOB DONE.
=------------------------------------------------------------------------------=
