
     Program PWSCF v.7.3.1 starts on 26Mar2024 at 20:32:30 

     This program is part of the open-source Quantum ESPRESSO suite
     for quantum simulation of materials; please cite
         "P. Giannozzi et al., J. Phys.:Condens. Matter 21 395502 (2009);
         "P. Giannozzi et al., J. Phys.:Condens. Matter 29 465901 (2017);
         "P. Giannozzi et al., J. Chem. Phys. 152 154105 (2020);
          URL http://www.quantum-espresso.org", 
     in publications or presentations arising from this work. More details at
     http://www.quantum-espresso.org/quote

     Parallel version (MPI & OpenMP), running on       4 processor cores
     Number of MPI processes:                 4
     Threads/MPI process:                     1

     MPI processes distributed on     1 nodes
     150689 MiB available memory on the printing compute node when the environment starts

     Reading input from nscf.pwi

     Current dimensions of program PWSCF are:
     Max number of different atomic species (ntypx) = 10
     Max number of k-points (npk) =  40000
     Max angular momentum in pseudopotentials (lmaxx) =  4
     file Zn.pbesol-spn-rrkjus_gipaw.1.0.0.UPF: wavefunction(s)  3P renormalized

     Atomic positions and unit cell read from directory:
     ./TMP/zno.save/


     K-points division:     npool     =       4
     Subspace diagonalization in iterative solution of the eigenvalue problem:
     a serial algorithm will be used


     G-vector sticks info
     --------------------
     sticks:   dense  smooth     PW     G-vecs:    dense   smooth      PW
     Sum        1531     613    199                79367    20077    3609

     Using Slab Decomposition



     bravais-lattice index     =            4
     lattice parameter (alat)  =       6.1177  a.u.
     unit-cell volume          =     319.8518 (a.u.)^3
     number of atoms/cell      =            4
     number of atomic types    =            2
     number of electrons       =        52.00
     number of Kohn-Sham states=           50
     kinetic-energy cutoff     =      60.0000  Ry
     charge density cutoff     =     600.0000  Ry
     Exchange-correlation= PBESOL
                           (   1   4  10   8   0   0   0)

     celldm(1)=   6.117707  celldm(2)=   0.000000  celldm(3)=   1.613066
     celldm(4)=   0.000000  celldm(5)=   0.000000  celldm(6)=   0.000000

     crystal axes: (cart. coord. in units of alat)
               a(1) = (   1.000000   0.000000   0.000000 )  
               a(2) = (  -0.500000   0.866025   0.000000 )  
               a(3) = (   0.000000   0.000000   1.613066 )  

     reciprocal axes: (cart. coord. in units 2 pi/alat)
               b(1) = (  1.000000  0.577350 -0.000000 )  
               b(2) = (  0.000000  1.154701  0.000000 )  
               b(3) = (  0.000000 -0.000000  0.619937 )  


     PseudoPot. # 1 for Zn read from file:
     /work4/dls/shared/pslibrary_pbesol/Zn.pbesol-spn-rrkjus_gipaw.1.0.0.UPF
     MD5 check sum: b4e9e16921b23c2f86f37449a7d7d891
     Pseudo is Ultrasoft + core correction, Zval = 20.0
     Generated using 'atomic' code by A. Dal Corso  v.7.0
     Using radial grid of 1201 points,  6 beta functions with: 
                l(1) =   0
                l(2) =   0
                l(3) =   1
                l(4) =   1
                l(5) =   2
                l(6) =   2
     Q(r) pseudized with 0 coefficients 


     PseudoPot. # 2 for O  read from file:
     /work4/dls/shared/pslibrary_pbesol/O.pbesol-n-rrkjus_gipaw.1.0.0.UPF
     MD5 check sum: 2ea9f908f11928dd1b1a171180989522
     Pseudo is Ultrasoft + core correction, Zval =  6.0
     Generated using 'atomic' code by A. Dal Corso  v.7.0
     Using radial grid of 1095 points,  4 beta functions with: 
                l(1) =   0
                l(2) =   0
                l(3) =   1
                l(4) =   1
     Q(r) pseudized with 0 coefficients 


     atomic species   valence    mass     pseudopotential
     Zn               20.00    65.38000     Zn( 1.00)
     O                 6.00    15.99900     O ( 1.00)

     12 Sym. Ops. (no inversion) found ( 6 have fractional translation)


                                    s                        frac. trans.

      isym =  1     identity                                     

 cryst.   s( 1) = (     1          0          0      )
                  (     0          1          0      )
                  (     0          0          1      )

 cart.    s( 1) = (  1.0000000  0.0000000  0.0000000 )
                  (  0.0000000  1.0000000  0.0000000 )
                  (  0.0000000  0.0000000  1.0000000 )


      isym =  2     180 deg rotation - cart. axis [0,0,1]        

 cryst.   s( 2) = (    -1          0          0      )    f =(  0.0000000 )
                  (     0         -1          0      )       (  0.0000000 )
                  (     0          0          1      )       ( -0.5000000 )

 cart.    s( 2) = ( -1.0000000 -0.0000000  0.0000000 )    f =(  0.0000000 )
                  (  0.0000000 -1.0000000  0.0000000 )       (  0.0000000 )
                  (  0.0000000  0.0000000  1.0000000 )       ( -0.8065331 )


      isym =  3      60 deg rotation - cryst. axis [0,0,1]       

 cryst.   s( 3) = (     1          1          0      )    f =(  0.0000000 )
                  (    -1          0          0      )       ( -0.0000000 )
                  (     0          0          1      )       ( -0.5000000 )

 cart.    s( 3) = (  0.5000000 -0.8660254  0.0000000 )    f =(  0.0000000 )
                  (  0.8660254  0.5000000  0.0000000 )       ( -0.0000000 )
                  (  0.0000000  0.0000000  1.0000000 )       ( -0.8065331 )


      isym =  4      60 deg rotation - cryst. axis [0,0,-1]      

 cryst.   s( 4) = (     0         -1          0      )    f =(  0.0000000 )
                  (     1          1          0      )       (  0.0000000 )
                  (     0          0          1      )       ( -0.5000000 )

 cart.    s( 4) = (  0.5000000  0.8660254  0.0000000 )    f =(  0.0000000 )
                  ( -0.8660254  0.5000000  0.0000000 )       (  0.0000000 )
                  (  0.0000000  0.0000000  1.0000000 )       ( -0.8065331 )


      isym =  5     120 deg rotation - cryst. axis [0,0,1]       

 cryst.   s( 5) = (     0          1          0      )
                  (    -1         -1          0      )
                  (     0          0          1      )

 cart.    s( 5) = ( -0.5000000 -0.8660254  0.0000000 )
                  (  0.8660254 -0.5000000  0.0000000 )
                  (  0.0000000  0.0000000  1.0000000 )


      isym =  6     120 deg rotation - cryst. axis [0,0,-1]      

 cryst.   s( 6) = (    -1         -1          0      )
                  (     1          0          0      )
                  (     0          0          1      )

 cart.    s( 6) = ( -0.5000000  0.8660254  0.0000000 )
                  ( -0.8660254 -0.5000000  0.0000000 )
                  (  0.0000000  0.0000000  1.0000000 )


      isym =  7     inv. 180 deg rotation - cart. axis [0,1,0]   

 cryst.   s( 7) = (     1          0          0      )    f =(  0.0000000 )
                  (    -1         -1          0      )       (  0.0000000 )
                  (     0          0          1      )       ( -0.5000000 )

 cart.    s( 7) = (  1.0000000 -0.0000000  0.0000000 )    f =(  0.0000000 )
                  (  0.0000000 -1.0000000  0.0000000 )       (  0.0000000 )
                  (  0.0000000  0.0000000  1.0000000 )       ( -0.8065331 )


      isym =  8     inv. 180 deg rotation - cart. axis [1,0,0]   

 cryst.   s( 8) = (    -1          0          0      )
                  (     1          1          0      )
                  (     0          0          1      )

 cart.    s( 8) = ( -1.0000000  0.0000000  0.0000000 )
                  (  0.0000000  1.0000000  0.0000000 )
                  (  0.0000000  0.0000000  1.0000000 )


      isym =  9     inv. 180 deg rotation - cryst. axis [1,-1,0] 

 cryst.   s( 9) = (     0          1          0      )    f =(  0.0000000 )
                  (     1          0          0      )       ( -0.0000000 )
                  (     0          0          1      )       ( -0.5000000 )

 cart.    s( 9) = ( -0.5000000  0.8660254  0.0000000 )    f =(  0.0000000 )
                  (  0.8660254  0.5000000  0.0000000 )       ( -0.0000000 )
                  (  0.0000000  0.0000000  1.0000000 )       ( -0.8065331 )


      isym = 10     inv. 180 deg rotation - cryst. axis [2,1,0]  

 cryst.   s(10) = (    -1         -1          0      )    f =(  0.0000000 )
                  (     0          1          0      )       (  0.0000000 )
                  (     0          0          1      )       ( -0.5000000 )

 cart.    s(10) = ( -0.5000000 -0.8660254  0.0000000 )    f =(  0.0000000 )
                  ( -0.8660254  0.5000000  0.0000000 )       (  0.0000000 )
                  (  0.0000000  0.0000000  1.0000000 )       ( -0.8065331 )


      isym = 11     inv. 180 deg rotation - cryst. axis [0,1,0]  

 cryst.   s(11) = (     1          1          0      )
                  (     0         -1          0      )
                  (     0          0          1      )

 cart.    s(11) = (  0.5000000  0.8660254  0.0000000 )
                  (  0.8660254 -0.5000000  0.0000000 )
                  (  0.0000000  0.0000000  1.0000000 )


      isym = 12     inv. 180 deg rotation - cryst. axis [1,1,0]  

 cryst.   s(12) = (     0         -1          0      )
                  (    -1          0          0      )
                  (     0          0          1      )

 cart.    s(12) = (  0.5000000 -0.8660254  0.0000000 )
                  ( -0.8660254 -0.5000000  0.0000000 )
                  (  0.0000000  0.0000000  1.0000000 )


     point group C_6v (6mm) 
     there are  6 classes
     the character table:

       E     2C6   2C3   C2    3s_v  3s_d 
A_1    1.00  1.00  1.00  1.00  1.00  1.00
A_2    1.00  1.00  1.00  1.00 -1.00 -1.00
B_1    1.00 -1.00  1.00 -1.00  1.00 -1.00
B_2    1.00 -1.00  1.00 -1.00 -1.00  1.00
E_1    2.00  1.00 -1.00 -2.00  0.00  0.00
E_2    2.00 -1.00 -1.00  2.00  0.00  0.00

     the symmetry operations in each class and the name of the first element:

     E        1
          identity                                               
     2C6      3    4
           60 deg rotation - cryst. axis [0,0,1]                 
     2C3      5    6
          120 deg rotation - cryst. axis [0,0,1]                 
     C2       2
          180 deg rotation - cart. axis [0,0,1]                  
     3s_v     8   12   11
          inv. 180 deg rotation - cart. axis [1,0,0]             
     3s_d     7    9   10
          inv. 180 deg rotation - cart. axis [0,1,0]             

   Cartesian axes

     site n.     atom                  positions (alat units)
         1        Zn     tau(   1) = (  -0.0000000   0.5773503   0.0009545  )
         2        Zn     tau(   2) = (   0.5000000   0.2886751   0.8074875  )
         3        O      tau(   3) = (  -0.0000000   0.5773503   0.6125107  )
         4        O      tau(   4) = (   0.5000000   0.2886751   1.4190438  )

   Crystallographic axes

     site n.     atom                  positions (cryst. coord.)
         1        Zn     tau(   1) = (  0.3333333  0.6666667  0.0005917  )
         2        Zn     tau(   2) = (  0.6666667  0.3333333  0.5005917  )
         3        O      tau(   3) = (  0.3333333  0.6666667  0.3797183  )
         4        O      tau(   4) = (  0.6666667  0.3333333  0.8797183  )

     number of k points=    90
                       cart. coord. in units 2pi/alat
        k(    1) = (   0.0500000   0.0866025   0.0516614), wk =   0.0133333
        k(    2) = (   0.0500000   0.0866025   0.1549843), wk =   0.0133333
        k(    3) = (   0.0500000   0.0866025   0.2583072), wk =   0.0133333
        k(    4) = (   0.0500000   0.2020726   0.0516614), wk =   0.0266667
        k(    5) = (   0.0500000   0.2020726   0.1549843), wk =   0.0266667
        k(    6) = (   0.0500000   0.2020726   0.2583072), wk =   0.0266667
        k(    7) = (   0.0500000   0.3175426   0.0516614), wk =   0.0266667
        k(    8) = (   0.0500000   0.3175426   0.1549843), wk =   0.0266667
        k(    9) = (   0.0500000   0.3175426   0.2583072), wk =   0.0266667
        k(   10) = (   0.0500000   0.4330127   0.0516614), wk =   0.0266667
        k(   11) = (   0.0500000   0.4330127   0.1549843), wk =   0.0266667
        k(   12) = (   0.0500000   0.4330127   0.2583072), wk =   0.0266667
        k(   13) = (   0.0500000   0.5484828   0.0516614), wk =   0.0266667
        k(   14) = (   0.0500000   0.5484828   0.1549843), wk =   0.0266667
        k(   15) = (   0.0500000   0.5484828   0.2583072), wk =   0.0266667
        k(   16) = (   0.0500000  -0.4907477   0.0516614), wk =   0.0266667
        k(   17) = (   0.0500000  -0.4907477   0.1549843), wk =   0.0266667
        k(   18) = (   0.0500000  -0.4907477   0.2583072), wk =   0.0266667
        k(   19) = (   0.0500000  -0.3752777   0.0516614), wk =   0.0266667
        k(   20) = (   0.0500000  -0.3752777   0.1549843), wk =   0.0266667
        k(   21) = (   0.0500000  -0.3752777   0.2583072), wk =   0.0266667
        k(   22) = (   0.0500000  -0.2598076   0.0516614), wk =   0.0266667
        k(   23) = (   0.0500000  -0.2598076   0.1549843), wk =   0.0266667
        k(   24) = (   0.0500000  -0.2598076   0.2583072), wk =   0.0266667
        k(   25) = (   0.0500000  -0.1443376   0.0516614), wk =   0.0266667
        k(   26) = (   0.0500000  -0.1443376   0.1549843), wk =   0.0266667
        k(   27) = (   0.0500000  -0.1443376   0.2583072), wk =   0.0266667
        k(   28) = (   0.0500000  -0.0288675   0.0516614), wk =   0.0133333
        k(   29) = (   0.0500000  -0.0288675   0.1549843), wk =   0.0133333
        k(   30) = (   0.0500000  -0.0288675   0.2583072), wk =   0.0133333
        k(   31) = (   0.1500000   0.2598076   0.0516614), wk =   0.0133333
        k(   32) = (   0.1500000   0.2598076   0.1549843), wk =   0.0133333
        k(   33) = (   0.1500000   0.2598076   0.2583072), wk =   0.0133333
        k(   34) = (   0.1500000   0.3752777   0.0516614), wk =   0.0266667
        k(   35) = (   0.1500000   0.3752777   0.1549843), wk =   0.0266667
        k(   36) = (   0.1500000   0.3752777   0.2583072), wk =   0.0266667
        k(   37) = (   0.1500000   0.4907477   0.0516614), wk =   0.0266667
        k(   38) = (   0.1500000   0.4907477   0.1549843), wk =   0.0266667
        k(   39) = (   0.1500000   0.4907477   0.2583072), wk =   0.0266667
        k(   40) = (   0.1500000   0.6062178   0.0516614), wk =   0.0266667
        k(   41) = (   0.1500000   0.6062178   0.1549843), wk =   0.0266667
        k(   42) = (   0.1500000   0.6062178   0.2583072), wk =   0.0266667
        k(   43) = (   0.1500000  -0.4330127   0.0516614), wk =   0.0266667
        k(   44) = (   0.1500000  -0.4330127   0.1549843), wk =   0.0266667
        k(   45) = (   0.1500000  -0.4330127   0.2583072), wk =   0.0266667
        k(   46) = (   0.1500000  -0.3175426   0.0516614), wk =   0.0266667
        k(   47) = (   0.1500000  -0.3175426   0.1549843), wk =   0.0266667
        k(   48) = (   0.1500000  -0.3175426   0.2583072), wk =   0.0266667
        k(   49) = (   0.1500000  -0.2020726   0.0516614), wk =   0.0266667
        k(   50) = (   0.1500000  -0.2020726   0.1549843), wk =   0.0266667
        k(   51) = (   0.1500000  -0.2020726   0.2583072), wk =   0.0266667
        k(   52) = (   0.1500000  -0.0866025   0.0516614), wk =   0.0133333
        k(   53) = (   0.1500000  -0.0866025   0.1549843), wk =   0.0133333
        k(   54) = (   0.1500000  -0.0866025   0.2583072), wk =   0.0133333
        k(   55) = (   0.2500000   0.4330127   0.0516614), wk =   0.0133333
        k(   56) = (   0.2500000   0.4330127   0.1549843), wk =   0.0133333
        k(   57) = (   0.2500000   0.4330127   0.2583072), wk =   0.0133333
        k(   58) = (   0.2500000   0.5484828   0.0516614), wk =   0.0266667
        k(   59) = (   0.2500000   0.5484828   0.1549843), wk =   0.0266667
        k(   60) = (   0.2500000   0.5484828   0.2583072), wk =   0.0266667
        k(   61) = (   0.2500000   0.6639528   0.0516614), wk =   0.0266667
        k(   62) = (   0.2500000   0.6639528   0.1549843), wk =   0.0266667
        k(   63) = (   0.2500000   0.6639528   0.2583072), wk =   0.0266667
        k(   64) = (   0.2500000  -0.3752777   0.0516614), wk =   0.0266667
        k(   65) = (   0.2500000  -0.3752777   0.1549843), wk =   0.0266667
        k(   66) = (   0.2500000  -0.3752777   0.2583072), wk =   0.0266667
        k(   67) = (   0.2500000  -0.2598076   0.0516614), wk =   0.0266667
        k(   68) = (   0.2500000  -0.2598076   0.1549843), wk =   0.0266667
        k(   69) = (   0.2500000  -0.2598076   0.2583072), wk =   0.0266667
        k(   70) = (   0.2500000  -0.1443376   0.0516614), wk =   0.0133333
        k(   71) = (   0.2500000  -0.1443376   0.1549843), wk =   0.0133333
        k(   72) = (   0.2500000  -0.1443376   0.2583072), wk =   0.0133333
        k(   73) = (   0.3500000   0.6062178   0.0516614), wk =   0.0133333
        k(   74) = (   0.3500000   0.6062178   0.1549843), wk =   0.0133333
        k(   75) = (   0.3500000   0.6062178   0.2583072), wk =   0.0133333
        k(   76) = (   0.3500000   0.7216878   0.0516614), wk =   0.0266667
        k(   77) = (   0.3500000   0.7216878   0.1549843), wk =   0.0266667
        k(   78) = (   0.3500000   0.7216878   0.2583072), wk =   0.0266667
        k(   79) = (   0.3500000  -0.3175426   0.0516614), wk =   0.0266667
        k(   80) = (   0.3500000  -0.3175426   0.1549843), wk =   0.0266667
        k(   81) = (   0.3500000  -0.3175426   0.2583072), wk =   0.0266667
        k(   82) = (   0.3500000  -0.2020726   0.0516614), wk =   0.0133333
        k(   83) = (   0.3500000  -0.2020726   0.1549843), wk =   0.0133333
        k(   84) = (   0.3500000  -0.2020726   0.2583072), wk =   0.0133333
        k(   85) = (   0.4500000   0.7794229   0.0516614), wk =   0.0133333
        k(   86) = (   0.4500000   0.7794229   0.1549843), wk =   0.0133333
        k(   87) = (   0.4500000   0.7794229   0.2583072), wk =   0.0133333
        k(   88) = (   0.4500000  -0.2598076   0.0516614), wk =   0.0133333
        k(   89) = (   0.4500000  -0.2598076   0.1549843), wk =   0.0133333
        k(   90) = (   0.4500000  -0.2598076   0.2583072), wk =   0.0133333

                       cryst. coord.
        k(    1) = (   0.0500000   0.0500000   0.0833333), wk =   0.0133333
        k(    2) = (   0.0500000   0.0500000   0.2500000), wk =   0.0133333
        k(    3) = (   0.0500000   0.0500000   0.4166667), wk =   0.0133333
        k(    4) = (   0.0500000   0.1500000   0.0833333), wk =   0.0266667
        k(    5) = (   0.0500000   0.1500000   0.2500000), wk =   0.0266667
        k(    6) = (   0.0500000   0.1500000   0.4166667), wk =   0.0266667
        k(    7) = (   0.0500000   0.2500000   0.0833333), wk =   0.0266667
        k(    8) = (   0.0500000   0.2500000   0.2500000), wk =   0.0266667
        k(    9) = (   0.0500000   0.2500000   0.4166667), wk =   0.0266667
        k(   10) = (   0.0500000   0.3500000   0.0833333), wk =   0.0266667
        k(   11) = (   0.0500000   0.3500000   0.2500000), wk =   0.0266667
        k(   12) = (   0.0500000   0.3500000   0.4166667), wk =   0.0266667
        k(   13) = (   0.0500000   0.4500000   0.0833333), wk =   0.0266667
        k(   14) = (   0.0500000   0.4500000   0.2500000), wk =   0.0266667
        k(   15) = (   0.0500000   0.4500000   0.4166667), wk =   0.0266667
        k(   16) = (   0.0500000  -0.4500000   0.0833333), wk =   0.0266667
        k(   17) = (   0.0500000  -0.4500000   0.2500000), wk =   0.0266667
        k(   18) = (   0.0500000  -0.4500000   0.4166667), wk =   0.0266667
        k(   19) = (   0.0500000  -0.3500000   0.0833333), wk =   0.0266667
        k(   20) = (   0.0500000  -0.3500000   0.2500000), wk =   0.0266667
        k(   21) = (   0.0500000  -0.3500000   0.4166667), wk =   0.0266667
        k(   22) = (   0.0500000  -0.2500000   0.0833333), wk =   0.0266667
        k(   23) = (   0.0500000  -0.2500000   0.2500000), wk =   0.0266667
        k(   24) = (   0.0500000  -0.2500000   0.4166667), wk =   0.0266667
        k(   25) = (   0.0500000  -0.1500000   0.0833333), wk =   0.0266667
        k(   26) = (   0.0500000  -0.1500000   0.2500000), wk =   0.0266667
        k(   27) = (   0.0500000  -0.1500000   0.4166667), wk =   0.0266667
        k(   28) = (   0.0500000  -0.0500000   0.0833333), wk =   0.0133333
        k(   29) = (   0.0500000  -0.0500000   0.2500000), wk =   0.0133333
        k(   30) = (   0.0500000  -0.0500000   0.4166667), wk =   0.0133333
        k(   31) = (   0.1500000   0.1500000   0.0833333), wk =   0.0133333
        k(   32) = (   0.1500000   0.1500000   0.2500000), wk =   0.0133333
        k(   33) = (   0.1500000   0.1500000   0.4166667), wk =   0.0133333
        k(   34) = (   0.1500000   0.2500000   0.0833333), wk =   0.0266667
        k(   35) = (   0.1500000   0.2500000   0.2500000), wk =   0.0266667
        k(   36) = (   0.1500000   0.2500000   0.4166667), wk =   0.0266667
        k(   37) = (   0.1500000   0.3500000   0.0833333), wk =   0.0266667
        k(   38) = (   0.1500000   0.3500000   0.2500000), wk =   0.0266667
        k(   39) = (   0.1500000   0.3500000   0.4166667), wk =   0.0266667
        k(   40) = (   0.1500000   0.4500000   0.0833333), wk =   0.0266667
        k(   41) = (   0.1500000   0.4500000   0.2500000), wk =   0.0266667
        k(   42) = (   0.1500000   0.4500000   0.4166667), wk =   0.0266667
        k(   43) = (   0.1500000  -0.4500000   0.0833333), wk =   0.0266667
        k(   44) = (   0.1500000  -0.4500000   0.2500000), wk =   0.0266667
        k(   45) = (   0.1500000  -0.4500000   0.4166667), wk =   0.0266667
        k(   46) = (   0.1500000  -0.3500000   0.0833333), wk =   0.0266667
        k(   47) = (   0.1500000  -0.3500000   0.2500000), wk =   0.0266667
        k(   48) = (   0.1500000  -0.3500000   0.4166667), wk =   0.0266667
        k(   49) = (   0.1500000  -0.2500000   0.0833333), wk =   0.0266667
        k(   50) = (   0.1500000  -0.2500000   0.2500000), wk =   0.0266667
        k(   51) = (   0.1500000  -0.2500000   0.4166667), wk =   0.0266667
        k(   52) = (   0.1500000  -0.1500000   0.0833333), wk =   0.0133333
        k(   53) = (   0.1500000  -0.1500000   0.2500000), wk =   0.0133333
        k(   54) = (   0.1500000  -0.1500000   0.4166667), wk =   0.0133333
        k(   55) = (   0.2500000   0.2500000   0.0833333), wk =   0.0133333
        k(   56) = (   0.2500000   0.2500000   0.2500000), wk =   0.0133333
        k(   57) = (   0.2500000   0.2500000   0.4166667), wk =   0.0133333
        k(   58) = (   0.2500000   0.3500000   0.0833333), wk =   0.0266667
        k(   59) = (   0.2500000   0.3500000   0.2500000), wk =   0.0266667
        k(   60) = (   0.2500000   0.3500000   0.4166667), wk =   0.0266667
        k(   61) = (   0.2500000   0.4500000   0.0833333), wk =   0.0266667
        k(   62) = (   0.2500000   0.4500000   0.2500000), wk =   0.0266667
        k(   63) = (   0.2500000   0.4500000   0.4166667), wk =   0.0266667
        k(   64) = (   0.2500000  -0.4500000   0.0833333), wk =   0.0266667
        k(   65) = (   0.2500000  -0.4500000   0.2500000), wk =   0.0266667
        k(   66) = (   0.2500000  -0.4500000   0.4166667), wk =   0.0266667
        k(   67) = (   0.2500000  -0.3500000   0.0833333), wk =   0.0266667
        k(   68) = (   0.2500000  -0.3500000   0.2500000), wk =   0.0266667
        k(   69) = (   0.2500000  -0.3500000   0.4166667), wk =   0.0266667
        k(   70) = (   0.2500000  -0.2500000   0.0833333), wk =   0.0133333
        k(   71) = (   0.2500000  -0.2500000   0.2500000), wk =   0.0133333
        k(   72) = (   0.2500000  -0.2500000   0.4166667), wk =   0.0133333
        k(   73) = (   0.3500000   0.3500000   0.0833333), wk =   0.0133333
        k(   74) = (   0.3500000   0.3500000   0.2500000), wk =   0.0133333
        k(   75) = (   0.3500000   0.3500000   0.4166667), wk =   0.0133333
        k(   76) = (   0.3500000   0.4500000   0.0833333), wk =   0.0266667
        k(   77) = (   0.3500000   0.4500000   0.2500000), wk =   0.0266667
        k(   78) = (   0.3500000   0.4500000   0.4166667), wk =   0.0266667
        k(   79) = (   0.3500000  -0.4500000   0.0833333), wk =   0.0266667
        k(   80) = (   0.3500000  -0.4500000   0.2500000), wk =   0.0266667
        k(   81) = (   0.3500000  -0.4500000   0.4166667), wk =   0.0266667
        k(   82) = (   0.3500000  -0.3500000   0.0833333), wk =   0.0133333
        k(   83) = (   0.3500000  -0.3500000   0.2500000), wk =   0.0133333
        k(   84) = (   0.3500000  -0.3500000   0.4166667), wk =   0.0133333
        k(   85) = (   0.4500000   0.4500000   0.0833333), wk =   0.0133333
        k(   86) = (   0.4500000   0.4500000   0.2500000), wk =   0.0133333
        k(   87) = (   0.4500000   0.4500000   0.4166667), wk =   0.0133333
        k(   88) = (   0.4500000  -0.4500000   0.0833333), wk =   0.0133333
        k(   89) = (   0.4500000  -0.4500000   0.2500000), wk =   0.0133333
        k(   90) = (   0.4500000  -0.4500000   0.4166667), wk =   0.0133333

     Dense  grid:    79367 G-vectors     FFT dimensions: (  48,  48,  80)

     Smooth grid:    20077 G-vectors     FFT dimensions: (  32,  32,  50)

     Dynamical RAM for                 wfc:       1.91 MB

     Dynamical RAM for     wfc (w. buffer):       1.91 MB

     Dynamical RAM for           str. fact:       2.42 MB

     Dynamical RAM for           local pot:       0.00 MB

     Dynamical RAM for          nlocal pot:       1.99 MB

     Dynamical RAM for                qrad:       3.93 MB

     Dynamical RAM for          rho,v,vnew:       7.85 MB

     Dynamical RAM for           G-vectors:       4.69 MB

     Dynamical RAM for          h,s,v(r/c):       0.11 MB

     Dynamical RAM for          <psi|beta>:       0.04 MB

     Dynamical RAM for      wfcinit/wfcrot:       3.89 MB

     Dynamical RAM for           addusdens:      57.83 MB

     Estimated static dynamical RAM per process >      33.47 MB

     Estimated max dynamical RAM per process >      91.29 MB

     Estimated total dynamical RAM >     365.18 MB

     The potential is recalculated from file :
     ./TMP/zno.save/charge-density

     Starting wfcs are   28 atomic +   22 random wfcs

     Band Structure Calculation
     CG style diagonalization

     Computing kpt #:     1  of    23 on this pool
     total cpu time spent up to now is        8.8 secs

     Computing kpt #:     2  of    23 on this pool
     c_bands:  2 eigenvalues not converged
     total cpu time spent up to now is       15.9 secs

     Computing kpt #:     3  of    23 on this pool
     c_bands:  2 eigenvalues not converged
     total cpu time spent up to now is       22.9 secs

     Computing kpt #:     4  of    23 on this pool
     c_bands:  2 eigenvalues not converged
     total cpu time spent up to now is       29.9 secs

     Computing kpt #:     5  of    23 on this pool
     c_bands:  3 eigenvalues not converged
     total cpu time spent up to now is       36.8 secs

     Computing kpt #:     6  of    23 on this pool
     c_bands:  3 eigenvalues not converged
     total cpu time spent up to now is       43.7 secs

     Computing kpt #:     7  of    23 on this pool
     c_bands:  2 eigenvalues not converged
     total cpu time spent up to now is       51.0 secs

     Computing kpt #:     8  of    23 on this pool
     c_bands:  2 eigenvalues not converged
     total cpu time spent up to now is       58.0 secs

     Computing kpt #:     9  of    23 on this pool
     c_bands:  3 eigenvalues not converged
     total cpu time spent up to now is       65.1 secs

     Computing kpt #:    10  of    23 on this pool
     c_bands:  2 eigenvalues not converged
     total cpu time spent up to now is       72.3 secs

     Computing kpt #:    11  of    23 on this pool
     c_bands:  2 eigenvalues not converged
     total cpu time spent up to now is       79.3 secs

     Computing kpt #:    12  of    23 on this pool
     c_bands:  4 eigenvalues not converged
     total cpu time spent up to now is       86.5 secs

     Computing kpt #:    13  of    23 on this pool
     c_bands:  2 eigenvalues not converged
     total cpu time spent up to now is       93.7 secs

     Computing kpt #:    14  of    23 on this pool
     c_bands:  2 eigenvalues not converged
     total cpu time spent up to now is      100.7 secs

     Computing kpt #:    15  of    23 on this pool
     c_bands:  4 eigenvalues not converged
     total cpu time spent up to now is      107.8 secs

     Computing kpt #:    16  of    23 on this pool
     c_bands:  3 eigenvalues not converged
     total cpu time spent up to now is      115.0 secs

     Computing kpt #:    17  of    23 on this pool
     c_bands:  2 eigenvalues not converged
     total cpu time spent up to now is      122.1 secs

     Computing kpt #:    18  of    23 on this pool
     c_bands:  2 eigenvalues not converged
     total cpu time spent up to now is      129.3 secs

     Computing kpt #:    19  of    23 on this pool
     c_bands:  1 eigenvalues not converged
     total cpu time spent up to now is      136.3 secs

     Computing kpt #:    20  of    23 on this pool
     c_bands:  1 eigenvalues not converged
     total cpu time spent up to now is      143.4 secs

     Computing kpt #:    21  of    23 on this pool
     c_bands:  2 eigenvalues not converged
     total cpu time spent up to now is      150.5 secs

     Computing kpt #:    22  of    23 on this pool
     c_bands:  2 eigenvalues not converged
     total cpu time spent up to now is      157.6 secs

     Computing kpt #:    23  of    23 on this pool
     c_bands:  2 eigenvalues not converged
     total cpu time spent up to now is      162.7 secs

     ethr =  1.92E-12,  avg # of iterations = 83.2

     total cpu time spent up to now is      162.8 secs

     End of band structure calculation

          k = 0.0500 0.0866 0.0517 (  2525 PWs)   bands (ev):

  -114.3173-114.3169 -68.6547 -68.6523 -68.6478 -68.6477 -68.6470 -68.6466
    -9.1782  -8.4782   3.0101   3.0721   3.1234   3.1310   3.2578   3.2875
     4.2480   4.2617   4.4754   4.4970   4.8348   7.7631   7.9064   8.2056
     8.6687   8.7459  10.2748  14.2566  16.9761  20.8799  21.7217  22.3833
    22.5316  23.0229  25.1916  26.1697  27.3608  28.5436  29.4626  29.6849
    30.7979  32.6262  33.1475  33.5917  36.4895  37.0651  37.1467  37.4930
    39.4856  39.4897

     occupation numbers 
     1.0000   1.0000   1.0000   1.0000   1.0000   1.0000   1.0000   1.0000
     1.0000   1.0000   1.0000   1.0000   1.0000   1.0000   1.0000   1.0000
     1.0000   1.0000   1.0000   1.0000   1.0000   1.0000   1.0000   1.0000
     1.0000   1.0000   0.0000   0.0000   0.0000   0.0000   0.0000   0.0000
     0.0000   0.0000   0.0000   0.0000   0.0000   0.0000   0.0000   0.0000
     0.0000   0.0000   0.0000   0.0000   0.0000   0.0000   0.0000   0.0000
     0.0000   0.0000

          k = 0.0500 0.0866 0.1550 (  2509 PWs)   bands (ev):

  -114.3171-114.3168 -68.6542 -68.6522 -68.6476 -68.6474 -68.6470 -68.6464
    -9.0884  -8.5761   2.9157   2.9453   3.1080   3.1166   3.2330   3.2495
     4.2902   4.2989   4.4561   4.4662   5.3926   7.6267   7.8799   8.0426
     8.5547   8.6382  10.9963  13.7553  17.4143  20.8323  21.1919  21.7478
    22.0744  22.6346  26.0690  26.8747  27.8034  28.3386  29.6404  29.8216
    32.1726  32.5167  33.1646  33.3032  35.4578  36.0947  37.0476  37.9424
    39.8911  39.9014

     occupation numbers 
     1.0000   1.0000   1.0000   1.0000   1.0000   1.0000   1.0000   1.0000
     1.0000   1.0000   1.0000   1.0000   1.0000   1.0000   1.0000   1.0000
     1.0000   1.0000   1.0000   1.0000   1.0000   1.0000   1.0000   1.0000
     1.0000   1.0000   0.0000   0.0000   0.0000   0.0000   0.0000   0.0000
     0.0000   0.0000   0.0000   0.0000   0.0000   0.0000   0.0000   0.0000
     0.0000   0.0000   0.0000   0.0000   0.0000   0.0000   0.0000   0.0000
     0.0000   0.0000

          k = 0.0500 0.0866 0.2583 (  2515 PWs)   bands (ev):

  -114.3171-114.3169 -68.6542 -68.6535 -68.6475 -68.6474 -68.6469 -68.6468
    -8.9302  -8.7427   2.8127   2.8441   3.1367   3.1408   3.1830   3.1935
     4.3555   4.3572   4.4150   4.4195   6.1526   6.9246   8.0869   8.2281
     8.3371   8.4502  11.9596  12.9320  18.2388  19.4450  21.2843  21.6349
    21.9098  22.2042  26.7706  27.3914  28.2987  28.7281  29.4234  29.5937
    32.2550  32.7756  33.3878  34.2330  34.6916  35.3885  36.7477  38.5248
    40.1168  40.3559

     occupation numbers 
     1.0000   1.0000   1.0000   1.0000   1.0000   1.0000   1.0000   1.0000
     1.0000   1.0000   1.0000   1.0000   1.0000   1.0000   1.0000   1.0000
     1.0000   1.0000   1.0000   1.0000   1.0000   1.0000   1.0000   1.0000
     1.0000   1.0000   0.0000   0.0000   0.0000   0.0000   0.0000   0.0000
     0.0000   0.0000   0.0000   0.0000   0.0000   0.0000   0.0000   0.0000
     0.0000   0.0000   0.0000   0.0000   0.0000   0.0000   0.0000   0.0000
     0.0000   0.0000

          k = 0.0500 0.2021 0.0517 (  2527 PWs)   bands (ev):

  -114.3174-114.3168 -68.6545 -68.6524 -68.6483 -68.6482 -68.6475 -68.6471
    -9.0462  -8.4207   2.8882   3.1115   3.1741   3.2337   3.3776   3.3988
     4.2004   4.2624   4.4840   4.5655   4.8516   7.0141   7.4378   7.7021
     8.4915   8.5615  11.2614  15.0816  16.9664  19.4152  21.0904  21.9245
    22.3602  23.2591  24.2725  25.6517  27.8351  29.8561  30.5124  31.3875
    32.1356  32.3952  33.8997  35.3354  35.7571  37.0565  37.1049  38.2721
    38.8425  39.5741

     occupation numbers 
     1.0000   1.0000   1.0000   1.0000   1.0000   1.0000   1.0000   1.0000
     1.0000   1.0000   1.0000   1.0000   1.0000   1.0000   1.0000   1.0000
     1.0000   1.0000   1.0000   1.0000   1.0000   1.0000   1.0000   1.0000
     1.0000   1.0000   0.0000   0.0000   0.0000   0.0000   0.0000   0.0000
     0.0000   0.0000   0.0000   0.0000   0.0000   0.0000   0.0000   0.0000
     0.0000   0.0000   0.0000   0.0000   0.0000   0.0000   0.0000   0.0000
     0.0000   0.0000

          k = 0.0500 0.2021 0.1550 (  2524 PWs)   bands (ev):

  -114.3173-114.3169 -68.6545 -68.6525 -68.6483 -68.6482 -68.6477 -68.6469
    -8.9647  -8.5066   2.8254   2.9297   3.1779   3.2035   3.3167   3.3557
     4.2602   4.2987   4.4604   4.5011   5.4516   7.0823   7.3162   7.7549
     8.3214   8.4373  11.7514  14.4485  17.4235  19.4965  20.8221  21.3094
    21.9385  22.7929  25.0209  26.4909  27.9618  29.7959  30.8668  31.1020
    32.1795  32.5134  33.6755  35.2403  36.0297  36.1620  37.3500  38.5037
    39.4962  40.0751

     occupation numbers 
     1.0000   1.0000   1.0000   1.0000   1.0000   1.0000   1.0000   1.0000
     1.0000   1.0000   1.0000   1.0000   1.0000   1.0000   1.0000   1.0000
     1.0000   1.0000   1.0000   1.0000   1.0000   1.0000   1.0000   1.0000
     1.0000   1.0000   0.0000   0.0000   0.0000   0.0000   0.0000   0.0000
     0.0000   0.0000   0.0000   0.0000   0.0000   0.0000   0.0000   0.0000
     0.0000   0.0000   0.0000   0.0000   0.0000   0.0000   0.0000   0.0000
     0.0000   0.0000

          k = 0.0500 0.2021 0.2583 (  2520 PWs)   bands (ev):

  -114.3171-114.3170 -68.6540 -68.6535 -68.6480 -68.6480 -68.6474 -68.6470
    -8.8218  -8.6541   2.7545   2.7759   3.2043   3.2174   3.2663   3.2939
     4.3474   4.3557   4.4148   4.4334   6.1556   6.7409   7.5377   7.9268
     7.9896   8.2194  12.5787  13.5399  18.1655  19.0854  20.4528  20.7818
    22.0408  22.3461  25.9966  26.8570  28.1891  29.5044  30.5186  31.4374
    31.7890  32.4341  34.0225  35.0216  36.0728  36.6776  37.7090  39.1111
    39.8183  40.3229

     occupation numbers 
     1.0000   1.0000   1.0000   1.0000   1.0000   1.0000   1.0000   1.0000
     1.0000   1.0000   1.0000   1.0000   1.0000   1.0000   1.0000   1.0000
     1.0000   1.0000   1.0000   1.0000   1.0000   1.0000   1.0000   1.0000
     1.0000   1.0000   0.0000   0.0000   0.0000   0.0000   0.0000   0.0000
     0.0000   0.0000   0.0000   0.0000   0.0000   0.0000   0.0000   0.0000
     0.0000   0.0000   0.0000   0.0000   0.0000   0.0000   0.0000   0.0000
     0.0000   0.0000

          k = 0.0500 0.3175 0.0517 (  2525 PWs)   bands (ev):

  -114.3173-114.3168 -68.6543 -68.6525 -68.6489 -68.6486 -68.6484 -68.6473
    -8.8472  -8.3477   2.7726   3.1047   3.2361   3.3693   3.5686   3.6396
     4.1521   4.2974   4.4956   4.6174   4.9542   6.0974   6.8372   7.1804
     8.1993   8.2967  12.4168  15.9158  16.9518  18.0970  20.1407  21.3563
    22.1192  23.0132  24.2791  26.3731  27.7035  29.4843  31.6500  33.0425
    33.6904  33.8521  34.7928  35.6913  36.6933  37.0012  37.5322  38.2908
    39.4635  39.9693

     occupation numbers 
     1.0000   1.0000   1.0000   1.0000   1.0000   1.0000   1.0000   1.0000
     1.0000   1.0000   1.0000   1.0000   1.0000   1.0000   1.0000   1.0000
     1.0000   1.0000   1.0000   1.0000   1.0000   1.0000   1.0000   1.0000
     1.0000   1.0000   0.0000   0.0000   0.0000   0.0000   0.0000   0.0000
     0.0000   0.0000   0.0000   0.0000   0.0000   0.0000   0.0000   0.0000
     0.0000   0.0000   0.0000   0.0000   0.0000   0.0000   0.0000   0.0000
     0.0000   0.0000

          k = 0.0500 0.3175 0.1550 (  2522 PWs)   bands (ev):

  -114.3172-114.3168 -68.6542 -68.6529 -68.6489 -68.6485 -68.6481 -68.6474
    -8.7801  -8.4140   2.7161   2.9161   3.2660   3.3386   3.4778   3.5167
     4.2378   4.3274   4.4693   4.5492   5.4832   6.2713   6.7570   7.3232
     8.1010   8.1577  12.7006  15.1316  17.3911  18.2200  20.0295  21.1605
    21.9901  22.8490  24.0826  26.8672  27.8445  30.2792  30.9905  32.0074
    33.5386  34.3875  34.7444  35.9469  36.6279  37.2004  37.4024  38.9905
    39.9412  40.4141

     occupation numbers 
     1.0000   1.0000   1.0000   1.0000   1.0000   1.0000   1.0000   1.0000
     1.0000   1.0000   1.0000   1.0000   1.0000   1.0000   1.0000   1.0000
     1.0000   1.0000   1.0000   1.0000   1.0000   1.0000   1.0000   1.0000
     1.0000   1.0000   0.0000   0.0000   0.0000   0.0000   0.0000   0.0000
     0.0000   0.0000   0.0000   0.0000   0.0000   0.0000   0.0000   0.0000
     0.0000   0.0000   0.0000   0.0000   0.0000   0.0000   0.0000   0.0000
     0.0000   0.0000

          k = 0.0500 0.3175 0.2583 (  2518 PWs)   bands (ev):

  -114.3170-114.3169 -68.6540 -68.6534 -68.6485 -68.6485 -68.6477 -68.6474
    -8.6637  -8.5296   2.6701   2.7274   3.3133   3.3398   3.3965   3.4360
     4.3508   4.3730   4.4251   4.4613   5.9281   6.2209   7.1201   7.5797
     7.7354   7.8986  13.3214  14.1927  17.8563  18.2137  19.9923  20.5033
    22.1770  22.4868  24.8732  26.1387  28.7170  30.0664  31.0977  31.3009
    33.7265  34.1103  34.9866  35.5117  37.1697  37.2138  38.3972  39.5530
    40.0064  40.9134

     occupation numbers 
     1.0000   1.0000   1.0000   1.0000   1.0000   1.0000   1.0000   1.0000
     1.0000   1.0000   1.0000   1.0000   1.0000   1.0000   1.0000   1.0000
     1.0000   1.0000   1.0000   1.0000   1.0000   1.0000   1.0000   1.0000
     1.0000   1.0000   0.0000   0.0000   0.0000   0.0000   0.0000   0.0000
     0.0000   0.0000   0.0000   0.0000   0.0000   0.0000   0.0000   0.0000
     0.0000   0.0000   0.0000   0.0000   0.0000   0.0000   0.0000   0.0000
     0.0000   0.0000

          k = 0.0500 0.4330 0.0517 (  2510 PWs)   bands (ev):

  -114.3169-114.3167 -68.6541 -68.6525 -68.6491 -68.6487 -68.6485 -68.6472
    -8.6427  -8.2993   2.7532   3.0627   3.2970   3.5348   3.7446   3.7708
     4.2223   4.3666   4.5105   4.6830   4.9678   5.4972   6.2765   6.7325
     7.8152   8.0456  13.5824  16.1010  16.7031  17.4241  19.5832  20.9856
    21.8999  22.9249  24.4884  27.1338  28.1820  28.8593  31.4380  33.6738
    34.3082  35.0993  35.6064  36.3381  36.9959  37.8409  37.9875  39.1923
    40.1919  41.2621

     occupation numbers 
     1.0000   1.0000   1.0000   1.0000   1.0000   1.0000   1.0000   1.0000
     1.0000   1.0000   1.0000   1.0000   1.0000   1.0000   1.0000   1.0000
     1.0000   1.0000   1.0000   1.0000   1.0000   1.0000   1.0000   1.0000
     1.0000   1.0000   0.0000   0.0000   0.0000   0.0000   0.0000   0.0000
     0.0000   0.0000   0.0000   0.0000   0.0000   0.0000   0.0000   0.0000
     0.0000   0.0000   0.0000   0.0000   0.0000   0.0000   0.0000   0.0000
     0.0000   0.0000

          k = 0.0500 0.4330 0.1550 (  2511 PWs)   bands (ev):

  -114.3170-114.3168 -68.6543 -68.6529 -68.6489 -68.6488 -68.6483 -68.6473
    -8.5941  -8.3423   2.6882   2.8827   3.3420   3.4945   3.6291   3.6737
     4.2873   4.3901   4.4865   4.6076   5.1770   5.6763   6.4739   6.9283
     7.8339   7.9020  13.6380  15.3924  17.1477  17.4917  19.5045  21.0933
    21.9177  22.8357  23.8326  27.0050  28.6992  30.0571  30.3457  33.0803
    34.0041  35.2418  35.7811  35.9214  37.3772  38.1614  39.1261  39.3739
    40.4707  41.7201

     occupation numbers 
     1.0000   1.0000   1.0000   1.0000   1.0000   1.0000   1.0000   1.0000
     1.0000   1.0000   1.0000   1.0000   1.0000   1.0000   1.0000   1.0000
     1.0000   1.0000   1.0000   1.0000   1.0000   1.0000   1.0000   1.0000
     1.0000   1.0000   0.0000   0.0000   0.0000   0.0000   0.0000   0.0000
     0.0000   0.0000   0.0000   0.0000   0.0000   0.0000   0.0000   0.0000
     0.0000   0.0000   0.0000   0.0000   0.0000   0.0000   0.0000   0.0000
     0.0000   0.0000

          k = 0.0500 0.4330 0.2583 (  2506 PWs)   bands (ev):

  -114.3169-114.3167 -68.6537 -68.6531 -68.6488 -68.6486 -68.6479 -68.6478
    -8.5115  -8.4192   2.6380   2.6976   3.4247   3.4825   3.5364   3.5651
     4.3901   4.4173   4.4564   4.5125   5.3840   5.5776   7.0741   7.2555
     7.5627   7.6785  13.9645  14.6151  17.4231  17.5389  19.7126  20.4209
    22.3057  22.5971  24.3248  25.7255  29.7084  30.3663  30.8959  31.5579
    34.2665  35.0955  35.4559  35.6510  38.0900  38.6177  39.8858  40.2267
    40.5702  42.1193

     occupation numbers 
     1.0000   1.0000   1.0000   1.0000   1.0000   1.0000   1.0000   1.0000
     1.0000   1.0000   1.0000   1.0000   1.0000   1.0000   1.0000   1.0000
     1.0000   1.0000   1.0000   1.0000   1.0000   1.0000   1.0000   1.0000
     1.0000   1.0000   0.0000   0.0000   0.0000   0.0000   0.0000   0.0000
     0.0000   0.0000   0.0000   0.0000   0.0000   0.0000   0.0000   0.0000
     0.0000   0.0000   0.0000   0.0000   0.0000   0.0000   0.0000   0.0000
     0.0000   0.0000

          k = 0.0500 0.5485 0.0517 (  2503 PWs)   bands (ev):

  -114.3168-114.3167 -68.6539 -68.6528 -68.6490 -68.6487 -68.6485 -68.6473
    -8.5165  -8.2936   2.8153   3.0095   3.3216   3.6639   3.7270   3.8560
     4.3057   4.4215   4.5236   4.6145   5.0158   5.2739   6.0298   6.5271
     7.5245   7.9120  14.5090  15.6473  16.3682  17.3649  19.3103  21.1589
    21.7560  22.9082  24.4801  27.4177  28.2375  29.3307  31.1492  33.7646
    34.2139  34.7392  35.9123  36.3508  37.0163  37.9744  39.8244  40.5211
    41.5634  42.3529

     occupation numbers 
     1.0000   1.0000   1.0000   1.0000   1.0000   1.0000   1.0000   1.0000
     1.0000   1.0000   1.0000   1.0000   1.0000   1.0000   1.0000   1.0000
     1.0000   1.0000   1.0000   1.0000   1.0000   1.0000   1.0000   1.0000
     1.0000   1.0000   0.0000   0.0000   0.0000   0.0000   0.0000   0.0000
     0.0000   0.0000   0.0000   0.0000   0.0000   0.0000   0.0000   0.0000
     0.0000   0.0000   0.0000   0.0000   0.0000   0.0000   0.0000   0.0000
     0.0000   0.0000

          k = 0.0500 0.5485 0.1550 (  2497 PWs)   bands (ev):

  -114.3168-114.3166 -68.6540 -68.6526 -68.6487 -68.6484 -68.6482 -68.6473
    -8.4828  -8.3193   2.7312   2.8375   3.3728   3.6184   3.6780   3.7619
     4.3972   4.4315   4.5080   4.6107   4.9792   5.2041   6.5000   6.7635
     7.6321   7.7562  14.2802  15.2946  16.7508  17.4196  19.2118  21.1313
    21.9374  22.8374  23.7557  27.1532  29.3377  29.8888  30.2095  33.5849
    33.7380  35.0251  35.6936  35.9790  37.9963  38.3046  40.0716  41.0229
    41.6883  42.4412

     occupation numbers 
     1.0000   1.0000   1.0000   1.0000   1.0000   1.0000   1.0000   1.0000
     1.0000   1.0000   1.0000   1.0000   1.0000   1.0000   1.0000   1.0000
     1.0000   1.0000   1.0000   1.0000   1.0000   1.0000   1.0000   1.0000
     1.0000   1.0000   0.0000   0.0000   0.0000   0.0000   0.0000   0.0000
     0.0000   0.0000   0.0000   0.0000   0.0000   0.0000   0.0000   0.0000
     0.0000   0.0000   0.0000   0.0000   0.0000   0.0000   0.0000   0.0000
     0.0000   0.0000

          k = 0.0500 0.5485 0.2583 (  2501 PWs)   bands (ev):

  -114.3168-114.3167 -68.6539 -68.6533 -68.6487 -68.6487 -68.6479 -68.6475
    -8.4270  -8.3671   2.6515   2.6798   3.4722   3.5834   3.6320   3.6388
     4.4406   4.4498   4.5303   4.5828   5.0127   5.0996   7.0060   7.2214
     7.4000   7.6202  14.3201  14.7527  17.1042  17.3432  19.5272  20.3367
    22.3883  22.6603  24.2097  25.6914  30.1853  30.4303  30.8788  32.0837
    34.0411  35.0201  35.2187  35.5278  38.6924  39.2651  40.6898  41.4391
    41.9971  42.1965

     occupation numbers 
     1.0000   1.0000   1.0000   1.0000   1.0000   1.0000   1.0000   1.0000
     1.0000   1.0000   1.0000   1.0000   1.0000   1.0000   1.0000   1.0000
     1.0000   1.0000   1.0000   1.0000   1.0000   1.0000   1.0000   1.0000
     1.0000   1.0000   0.0000   0.0000   0.0000   0.0000   0.0000   0.0000
     0.0000   0.0000   0.0000   0.0000   0.0000   0.0000   0.0000   0.0000
     0.0000   0.0000   0.0000   0.0000   0.0000   0.0000   0.0000   0.0000
     0.0000   0.0000

          k = 0.0500-0.4907 0.0517 (  2502 PWs)   bands (ev):

  -114.3168-114.3167 -68.6539 -68.6526 -68.6489 -68.6487 -68.6483 -68.6472
    -8.5633  -8.2925   2.7826   3.0350   3.3137   3.6120   3.7471   3.8202
     4.2790   4.3992   4.5179   4.7035   4.8971   5.4009   6.0973   6.5925
     7.6370   7.9586  14.1118  15.9132  16.4725  17.3767  19.4063  21.0657
    21.8046  22.9176  24.4934  27.3319  28.2644  29.0604  31.2539  33.6491
    34.4345  34.9091  35.7876  36.3762  37.1113  37.8879  38.6622  40.5437
    40.9967  41.5998

     occupation numbers 
     1.0000   1.0000   1.0000   1.0000   1.0000   1.0000   1.0000   1.0000
     1.0000   1.0000   1.0000   1.0000   1.0000   1.0000   1.0000   1.0000
     1.0000   1.0000   1.0000   1.0000   1.0000   1.0000   1.0000   1.0000
     1.0000   1.0000   0.0000   0.0000   0.0000   0.0000   0.0000   0.0000
     0.0000   0.0000   0.0000   0.0000   0.0000   0.0000   0.0000   0.0000
     0.0000   0.0000   0.0000   0.0000   0.0000   0.0000   0.0000   0.0000
     0.0000   0.0000

          k = 0.0500-0.4907 0.1550 (  2508 PWs)   bands (ev):

  -114.3169-114.3167 -68.6541 -68.6528 -68.6491 -68.6488 -68.6484 -68.6475
    -8.5236  -8.3250   2.7070   2.8595   3.3632   3.5677   3.6666   3.7305
     4.3458   4.4182   4.4969   4.6352   4.9934   5.4224   6.4840   6.8080
     7.7115   7.8075  14.0277  15.3616  16.8987  17.4328  19.3167  21.1172
    21.9168  22.8359  23.7829  27.0892  29.1197  30.0228  30.1475  33.4053
    33.8477  35.1906  35.6771  36.0418  37.7523  38.3236  39.5707  40.5064
    41.2680  42.1996

     occupation numbers 
     1.0000   1.0000   1.0000   1.0000   1.0000   1.0000   1.0000   1.0000
     1.0000   1.0000   1.0000   1.0000   1.0000   1.0000   1.0000   1.0000
     1.0000   1.0000   1.0000   1.0000   1.0000   1.0000   1.0000   1.0000
     1.0000   1.0000   0.0000   0.0000   0.0000   0.0000   0.0000   0.0000
     0.0000   0.0000   0.0000   0.0000   0.0000   0.0000   0.0000   0.0000
     0.0000   0.0000   0.0000   0.0000   0.0000   0.0000   0.0000   0.0000
     0.0000   0.0000

          k = 0.0500-0.4907 0.2583 (  2499 PWs)   bands (ev):

  -114.3167-114.3167 -68.6538 -68.6533 -68.6486 -68.6486 -68.6480 -68.6475
    -8.4571  -8.3843   2.6425   2.6880   3.4572   3.5456   3.5980   3.6099
     4.4211   4.4387   4.4865   4.5521   5.1412   5.2987   7.0503   7.2045
     7.4606   7.6415  14.1922  14.7138  17.2174  17.4030  19.5969  20.3708
    22.3598  22.6367  24.2362  25.6864  30.1195  30.3267  30.8629  31.8725
    34.1110  35.0481  35.3534  35.6419  38.4955  39.1583  40.3900  40.9405
    41.3875  42.0316

     occupation numbers 
     1.0000   1.0000   1.0000   1.0000   1.0000   1.0000   1.0000   1.0000
     1.0000   1.0000   1.0000   1.0000   1.0000   1.0000   1.0000   1.0000
     1.0000   1.0000   1.0000   1.0000   1.0000   1.0000   1.0000   1.0000
     1.0000   1.0000   0.0000   0.0000   0.0000   0.0000   0.0000   0.0000
     0.0000   0.0000   0.0000   0.0000   0.0000   0.0000   0.0000   0.0000
     0.0000   0.0000   0.0000   0.0000   0.0000   0.0000   0.0000   0.0000
     0.0000   0.0000

          k = 0.0500-0.3753 0.0517 (  2511 PWs)   bands (ev):

  -114.3170-114.3167 -68.6540 -68.6524 -68.6489 -68.6484 -68.6483 -68.6472
    -8.7410  -8.3181   2.7481   3.0858   3.2706   3.4508   3.6627   3.7363
     4.1660   4.3306   4.5027   4.6378   5.0104   5.7181   6.5399   6.9359
     8.0125   8.1626  13.0077  16.1074  16.9035  17.6354  19.8232  21.0653
    22.0187  22.9413  24.4208  26.8118  27.8787  29.0684  31.6352  33.6389
    33.9591  34.7014  35.2517  36.3024  36.6842  37.4422  37.7924  38.5176
    39.3217  40.5588

     occupation numbers 
     1.0000   1.0000   1.0000   1.0000   1.0000   1.0000   1.0000   1.0000
     1.0000   1.0000   1.0000   1.0000   1.0000   1.0000   1.0000   1.0000
     1.0000   1.0000   1.0000   1.0000   1.0000   1.0000   1.0000   1.0000
     1.0000   1.0000   0.0000   0.0000   0.0000   0.0000   0.0000   0.0000
     0.0000   0.0000   0.0000   0.0000   0.0000   0.0000   0.0000   0.0000
     0.0000   0.0000   0.0000   0.0000   0.0000   0.0000   0.0000   0.0000
     0.0000   0.0000

          k = 0.0500-0.3753 0.1550 (  2514 PWs)   bands (ev):

  -114.3171-114.3168 -68.6542 -68.6528 -68.6488 -68.6485 -68.6483 -68.6474
    -8.6829  -8.3729   2.6899   2.9015   3.3086   3.4157   3.5622   3.6000
     4.2492   4.3566   4.4769   4.5759   5.3843   5.9423   6.5531   7.1090
     7.9699   8.0230  13.1832  15.3244  17.3295  17.7435  19.7439  21.0983
    21.9549  22.8402  23.9132  26.9444  28.2043  30.1191  30.6830  32.6065
    34.0035  34.9657  35.5236  35.9297  36.9203  37.6727  38.1108  39.1434
    40.0481  40.9319

     occupation numbers 
     1.0000   1.0000   1.0000   1.0000   1.0000   1.0000   1.0000   1.0000
     1.0000   1.0000   1.0000   1.0000   1.0000   1.0000   1.0000   1.0000
     1.0000   1.0000   1.0000   1.0000   1.0000   1.0000   1.0000   1.0000
     1.0000   1.0000   0.0000   0.0000   0.0000   0.0000   0.0000   0.0000
     0.0000   0.0000   0.0000   0.0000   0.0000   0.0000   0.0000   0.0000
     0.0000   0.0000   0.0000   0.0000   0.0000   0.0000   0.0000   0.0000
     0.0000   0.0000

          k = 0.0500-0.3753 0.2583 (  2515 PWs)   bands (ev):

  -114.3169-114.3169 -68.6540 -68.6531 -68.6488 -68.6486 -68.6480 -68.6477
    -8.5830  -8.4694   2.6462   2.7099   3.3740   3.4112   3.4661   3.5056
     4.3647   4.3929   4.4378   4.4827   5.6700   5.8949   7.0699   7.3996
     7.6664   7.7537  13.6665  14.4414  17.6452  17.8136  19.8450  20.4661
    22.2408  22.5465  24.5244  25.8684  29.1949  30.3023  30.9957  31.3221
    34.2719  34.9141  35.3008  35.5981  37.5860  37.6940  39.1582  39.7780
    40.2355  41.5607

     occupation numbers 
     1.0000   1.0000   1.0000   1.0000   1.0000   1.0000   1.0000   1.0000
     1.0000   1.0000   1.0000   1.0000   1.0000   1.0000   1.0000   1.0000
     1.0000   1.0000   1.0000   1.0000   1.0000   1.0000   1.0000   1.0000
     1.0000   1.0000   0.0000   0.0000   0.0000   0.0000   0.0000   0.0000
     0.0000   0.0000   0.0000   0.0000   0.0000   0.0000   0.0000   0.0000
     0.0000   0.0000   0.0000   0.0000   0.0000   0.0000   0.0000   0.0000
     0.0000   0.0000

          k = 0.0500-0.2598 0.0517 (  2525 PWs)   bands (ev):

  -114.3174-114.3168 -68.6543 -68.6525 -68.6485 -68.6483 -68.6480 -68.6473
    -8.9517  -8.3836   2.8227   3.1171   3.1997   3.2956   3.4769   3.5080
     4.1713   4.2740   4.4895   4.5977   4.8894   6.5482   7.1419   7.4425
     8.3607   8.4340  11.8293  15.5450  16.9596  18.7101  20.5696  21.7306
    22.1970  23.1665  24.1462  25.9335  27.7221  29.9427  31.1234  32.3931
    32.7031  33.2099  34.2305  35.4383  36.5979  36.8882  37.0666  38.2303
    39.2228  40.1671

     occupation numbers 
     1.0000   1.0000   1.0000   1.0000   1.0000   1.0000   1.0000   1.0000
     1.0000   1.0000   1.0000   1.0000   1.0000   1.0000   1.0000   1.0000
     1.0000   1.0000   1.0000   1.0000   1.0000   1.0000   1.0000   1.0000
     1.0000   1.0000   0.0000   0.0000   0.0000   0.0000   0.0000   0.0000
     0.0000   0.0000   0.0000   0.0000   0.0000   0.0000   0.0000   0.0000
     0.0000   0.0000   0.0000   0.0000   0.0000   0.0000   0.0000   0.0000
     0.0000   0.0000

          k = 0.0500-0.2598 0.1550 (  2523 PWs)   bands (ev):

  -114.3172-114.3169 -68.6544 -68.6527 -68.6486 -68.6482 -68.6479 -68.6471
    -8.8767  -8.4606   2.7641   2.9263   3.2204   3.2668   3.3919   3.4323
     4.2448   4.3080   4.4640   4.5244   5.4839   6.6708   7.0297   7.5466
     8.2152   8.3007  12.2161  14.8246  17.4168  18.8172  20.3902  21.2418
    21.9833  22.8406  24.4399  26.6775  27.7992  30.4132  31.0140  31.4394
    32.8542  33.3332  34.0194  35.8846  36.2864  36.7706  37.1959  38.7834
    39.5240  40.4835

     occupation numbers 
     1.0000   1.0000   1.0000   1.0000   1.0000   1.0000   1.0000   1.0000
     1.0000   1.0000   1.0000   1.0000   1.0000   1.0000   1.0000   1.0000
     1.0000   1.0000   1.0000   1.0000   1.0000   1.0000   1.0000   1.0000
     1.0000   1.0000   0.0000   0.0000   0.0000   0.0000   0.0000   0.0000
     0.0000   0.0000   0.0000   0.0000   0.0000   0.0000   0.0000   0.0000
     0.0000   0.0000   0.0000   0.0000   0.0000   0.0000   0.0000   0.0000
     0.0000   0.0000

          k = 0.0500-0.2598 0.2583 (  2528 PWs)   bands (ev):

  -114.3172-114.3170 -68.6539 -68.6536 -68.6486 -68.6484 -68.6478 -68.6476
    -8.7458  -8.5934   2.7082   2.7500   3.2546   3.2734   3.3290   3.3630
     4.3462   4.3608   4.4178   4.4454   6.0920   6.5186   7.2780   7.7608
     7.8325   8.0628  12.9507  13.8826  18.0419  18.6671  20.1875  20.5722
    22.1117  22.4198  25.3787  26.4996  28.3608  29.7723  31.0521  31.4272
    32.8058  32.9568  34.5094  35.3159  36.7767  37.0223  37.9671  39.2476
    39.8586  40.5426

     occupation numbers 
     1.0000   1.0000   1.0000   1.0000   1.0000   1.0000   1.0000   1.0000
     1.0000   1.0000   1.0000   1.0000   1.0000   1.0000   1.0000   1.0000
     1.0000   1.0000   1.0000   1.0000   1.0000   1.0000   1.0000   1.0000
     1.0000   1.0000   0.0000   0.0000   0.0000   0.0000   0.0000   0.0000
     0.0000   0.0000   0.0000   0.0000   0.0000   0.0000   0.0000   0.0000
     0.0000   0.0000   0.0000   0.0000   0.0000   0.0000   0.0000   0.0000
     0.0000   0.0000

          k = 0.0500-0.1443 0.0517 (  2523 PWs)   bands (ev):

  -114.3174-114.3168 -68.6545 -68.6523 -68.6479 -68.6477 -68.6473 -68.6467
    -9.1235  -8.4536   2.9556   3.0887   3.1551   3.1818   3.2884   3.3330
     4.2277   4.2598   4.4792   4.5277   4.8377   7.4422   7.7061   7.9517
     8.5921   8.6683  10.7328  14.6242  16.9723  20.1680  21.5724  22.0278
    22.5011  23.1618  24.7685  25.6786  27.8399  28.9686  30.0791  30.4689
    31.4535  32.3355  33.7023  34.1141  36.0618  37.0835  37.3723  37.7618
    39.0891  39.3514

     occupation numbers 
     1.0000   1.0000   1.0000   1.0000   1.0000   1.0000   1.0000   1.0000
     1.0000   1.0000   1.0000   1.0000   1.0000   1.0000   1.0000   1.0000
     1.0000   1.0000   1.0000   1.0000   1.0000   1.0000   1.0000   1.0000
     1.0000   1.0000   0.0000   0.0000   0.0000   0.0000   0.0000   0.0000
     0.0000   0.0000   0.0000   0.0000   0.0000   0.0000   0.0000   0.0000
     0.0000   0.0000   0.0000   0.0000   0.0000   0.0000   0.0000   0.0000
     0.0000   0.0000

          k = 0.0500-0.1443 0.1550 (  2519 PWs)   bands (ev):

  -114.3172-114.3168 -68.6545 -68.6523 -68.6480 -68.6478 -68.6473 -68.6467
    -9.0370  -8.5467   2.8886   2.9261   3.1407   3.1523   3.2626   3.2933
     4.2768   4.2970   4.4579   4.4810   5.4177   7.4242   7.6045   7.9250
     8.4349   8.5533  11.3324  14.0682  17.4200  20.2122  21.1150  21.5222
    21.8982  22.7140  25.7126  26.4705  28.1188  28.8056  30.3215  30.4691
    32.0079  32.4353  33.4187  34.2970  35.4786  36.1195  37.3071  38.2912
    39.6464  39.8117

     occupation numbers 
     1.0000   1.0000   1.0000   1.0000   1.0000   1.0000   1.0000   1.0000
     1.0000   1.0000   1.0000   1.0000   1.0000   1.0000   1.0000   1.0000
     1.0000   1.0000   1.0000   1.0000   1.0000   1.0000   1.0000   1.0000
     1.0000   1.0000   0.0000   0.0000   0.0000   0.0000   0.0000   0.0000
     0.0000   0.0000   0.0000   0.0000   0.0000   0.0000   0.0000   0.0000
     0.0000   0.0000   0.0000   0.0000   0.0000   0.0000   0.0000   0.0000
     0.0000   0.0000

          k = 0.0500-0.1443 0.2583 (  2526 PWs)   bands (ev):

  -114.3172-114.3170 -68.6541 -68.6537 -68.6480 -68.6479 -68.6474 -68.6471
    -8.8850  -8.7055   2.7931   2.8075   3.1647   3.1736   3.2153   3.2354
     4.3514   4.3554   4.4144   4.4248   6.1631   6.8676   7.8328   8.1004
     8.1622   8.3527  12.2347  13.2053  18.2218  19.3468  20.8247  21.1813
    21.9694  22.2698  26.5764  27.1300  28.2029  29.2200  29.7227  30.3858
    32.0032  32.4562  33.6399  34.7060  35.2657  36.0510  37.2672  38.9705
    39.8697  40.2026

     occupation numbers 
     1.0000   1.0000   1.0000   1.0000   1.0000   1.0000   1.0000   1.0000
     1.0000   1.0000   1.0000   1.0000   1.0000   1.0000   1.0000   1.0000
     1.0000   1.0000   1.0000   1.0000   1.0000   1.0000   1.0000   1.0000
     1.0000   1.0000   0.0000   0.0000   0.0000   0.0000   0.0000   0.0000
     0.0000   0.0000   0.0000   0.0000   0.0000   0.0000   0.0000   0.0000
     0.0000   0.0000   0.0000   0.0000   0.0000   0.0000   0.0000   0.0000
     0.0000   0.0000

          k = 0.0500-0.0289 0.0517 (  2529 PWs)   bands (ev):

  -114.3173-114.3170 -68.6551 -68.6527 -68.6478 -68.6475 -68.6467 -68.6465
    -9.2065  -8.4914   3.0407   3.0742   3.0781   3.1115   3.2535   3.2643
     4.2590   4.2638   4.4731   4.4803   4.8349   7.9348   7.9961   8.4057
     8.7308   8.7858   9.9673  14.0504  16.9777  21.3692  21.7148  22.5080
    22.7082  22.9466  25.3383  26.7512  26.9433  28.4113  29.0357  29.1530
    30.4134  32.1977  33.2847  33.5438  36.6906  36.8118  37.0706  37.4517
    39.7414  39.7679

     occupation numbers 
     1.0000   1.0000   1.0000   1.0000   1.0000   1.0000   1.0000   1.0000
     1.0000   1.0000   1.0000   1.0000   1.0000   1.0000   1.0000   1.0000
     1.0000   1.0000   1.0000   1.0000   1.0000   1.0000   1.0000   1.0000
     1.0000   1.0000   0.0000   0.0000   0.0000   0.0000   0.0000   0.0000
     0.0000   0.0000   0.0000   0.0000   0.0000   0.0000   0.0000   0.0000
     0.0000   0.0000   0.0000   0.0000   0.0000   0.0000   0.0000   0.0000
     0.0000   0.0000

          k = 0.0500-0.0289 0.1550 (  2508 PWs)   bands (ev):

  -114.3170-114.3169 -68.6544 -68.6521 -68.6474 -68.6473 -68.6467 -68.6463
    -9.1150  -8.5917   2.9101   2.9779   3.0890   3.0953   3.2213   3.2272
     4.2978   4.3008   4.4551   4.4584   5.3795   7.7160   8.0462   8.1038
     8.6440   8.6822  10.7996  13.5759  17.4101  21.0148  21.4494  21.7367
    22.3712  22.5893  26.0101  27.4012  27.4605  28.2166  29.2763  29.4535
    32.1535  32.3454  32.9660  33.0349  35.6777  36.0812  36.7328  37.6653
    40.0674  40.0939

     occupation numbers 
     1.0000   1.0000   1.0000   1.0000   1.0000   1.0000   1.0000   1.0000
     1.0000   1.0000   1.0000   1.0000   1.0000   1.0000   1.0000   1.0000
     1.0000   1.0000   1.0000   1.0000   1.0000   1.0000   1.0000   1.0000
     1.0000   1.0000   0.0000   0.0000   0.0000   0.0000   0.0000   0.0000
     0.0000   0.0000   0.0000   0.0000   0.0000   0.0000   0.0000   0.0000
     0.0000   0.0000   0.0000   0.0000   0.0000   0.0000   0.0000   0.0000
     0.0000   0.0000

          k = 0.0500-0.0289 0.2583 (  2512 PWs)   bands (ev):

  -114.3170-114.3170 -68.6542 -68.6535 -68.6472 -68.6470 -68.6469 -68.6465
    -8.9537  -8.7622   2.8221   2.8658   3.1212   3.1221   3.1688   3.1723
     4.3581   4.3587   4.4156   4.4169   6.1434   6.9443   8.2353   8.2892
     8.4553   8.5010  11.8026  12.7750  18.2404  19.4681  21.6260  21.8672
    21.9533  22.1656  26.6655  27.4222  28.4167  28.4866  29.2926  29.3509
    32.4637  33.1983  33.2241  33.6547  34.5372  34.8878  36.3937  38.2083
    40.3702  40.4619

     occupation numbers 
     1.0000   1.0000   1.0000   1.0000   1.0000   1.0000   1.0000   1.0000
     1.0000   1.0000   1.0000   1.0000   1.0000   1.0000   1.0000   1.0000
     1.0000   1.0000   1.0000   1.0000   1.0000   1.0000   1.0000   1.0000
     1.0000   1.0000   0.0000   0.0000   0.0000   0.0000   0.0000   0.0000
     0.0000   0.0000   0.0000   0.0000   0.0000   0.0000   0.0000   0.0000
     0.0000   0.0000   0.0000   0.0000   0.0000   0.0000   0.0000   0.0000
     0.0000   0.0000

          k = 0.1500 0.2598 0.0517 (  2509 PWs)   bands (ev):

  -114.3171-114.3166 -68.6541 -68.6523 -68.6486 -68.6482 -68.6473 -68.6471
    -8.8863  -8.3602   2.8462   3.0616   3.2590   3.2920   3.5465   3.5836
     4.1657   4.2772   4.4917   4.6188   4.9343   6.4721   6.7108   7.2923
     8.2547   8.2794  12.2503  15.8576  17.0304  18.4704  20.1765  21.3581
    21.5473  23.9815  24.1687  25.1766  29.4209  29.9710  30.7548  31.8604
    32.9462  33.8680  34.9480  35.4373  36.5544  36.9487  37.3065  38.8869
    39.5534  40.2173

     occupation numbers 
     1.0000   1.0000   1.0000   1.0000   1.0000   1.0000   1.0000   1.0000
     1.0000   1.0000   1.0000   1.0000   1.0000   1.0000   1.0000   1.0000
     1.0000   1.0000   1.0000   1.0000   1.0000   1.0000   1.0000   1.0000
     1.0000   1.0000   0.0000   0.0000   0.0000   0.0000   0.0000   0.0000
     0.0000   0.0000   0.0000   0.0000   0.0000   0.0000   0.0000   0.0000
     0.0000   0.0000   0.0000   0.0000   0.0000   0.0000   0.0000   0.0000
     0.0000   0.0000

          k = 0.1500 0.2598 0.1550 (  2519 PWs)   bands (ev):

  -114.3172-114.3168 -68.6543 -68.6529 -68.6486 -68.6484 -68.6476 -68.6473
    -8.8161  -8.4306   2.7800   2.9137   3.2467   3.2628   3.4428   3.4967
     4.2412   4.3187   4.4664   4.5457   5.5002   6.6288   6.7022   7.3250
     8.1024   8.1751  12.5811  15.0986  17.4489  18.5681  20.3751  20.6446
    21.4475  23.2802  24.8511  25.8579  28.6030  30.3764  31.0297  31.6961
    32.6730  33.9367  34.8227  35.6878  36.7448  37.2531  37.3570  38.4405
    39.9247  40.8192

     occupation numbers 
     1.0000   1.0000   1.0000   1.0000   1.0000   1.0000   1.0000   1.0000
     1.0000   1.0000   1.0000   1.0000   1.0000   1.0000   1.0000   1.0000
     1.0000   1.0000   1.0000   1.0000   1.0000   1.0000   1.0000   1.0000
     1.0000   1.0000   0.0000   0.0000   0.0000   0.0000   0.0000   0.0000
     0.0000   0.0000   0.0000   0.0000   0.0000   0.0000   0.0000   0.0000
     0.0000   0.0000   0.0000   0.0000   0.0000   0.0000   0.0000   0.0000
     0.0000   0.0000

          k = 0.1500 0.2598 0.2583 (  2526 PWs)   bands (ev):

  -114.3172-114.3169 -68.6539 -68.6538 -68.6487 -68.6486 -68.6477 -68.6476
    -8.6942  -8.5529   2.7150   2.7490   3.2532   3.2665   3.3915   3.4272
     4.3498   4.3682   4.4233   4.4598   6.0309   6.3913   7.1922   7.5201
     7.8087   7.8448  13.2522  14.1518  17.9931  18.4931  20.0823  20.1869
    21.8464  22.5122  25.9190  26.4214  28.1133  28.6605  31.7174  32.1091
    33.6241  34.0628  34.5441  34.6839  36.9188  37.0317  38.5104  39.2354
    40.3038  40.4682

     occupation numbers 
     1.0000   1.0000   1.0000   1.0000   1.0000   1.0000   1.0000   1.0000
     1.0000   1.0000   1.0000   1.0000   1.0000   1.0000   1.0000   1.0000
     1.0000   1.0000   1.0000   1.0000   1.0000   1.0000   1.0000   1.0000
     1.0000   1.0000   0.0000   0.0000   0.0000   0.0000   0.0000   0.0000
     0.0000   0.0000   0.0000   0.0000   0.0000   0.0000   0.0000   0.0000
     0.0000   0.0000   0.0000   0.0000   0.0000   0.0000   0.0000   0.0000
     0.0000   0.0000

          k = 0.1500 0.3753 0.0517 (  2510 PWs)   bands (ev):

  -114.3171-114.3166 -68.6541 -68.6526 -68.6491 -68.6488 -68.6479 -68.6473
    -8.6903  -8.3061   2.8491   3.0637   3.2972   3.4372   3.7167   3.7581
     4.1523   4.3259   4.5090   4.6825   5.0283   5.8355   6.2837   6.6211
     7.8899   7.9603  13.4308  16.2603  17.2436  17.6091  19.7464  20.4923
    21.0041  23.5073  24.5383  26.1846  29.2868  30.2312  31.4065  32.4517
    33.4564  34.7008  35.6670  35.9239  36.5993  37.3419  37.9483  38.4494
    40.7665  41.7151

     occupation numbers 
     1.0000   1.0000   1.0000   1.0000   1.0000   1.0000   1.0000   1.0000
     1.0000   1.0000   1.0000   1.0000   1.0000   1.0000   1.0000   1.0000
     1.0000   1.0000   1.0000   1.0000   1.0000   1.0000   1.0000   1.0000
     1.0000   1.0000   0.0000   0.0000   0.0000   0.0000   0.0000   0.0000
     0.0000   0.0000   0.0000   0.0000   0.0000   0.0000   0.0000   0.0000
     0.0000   0.0000   0.0000   0.0000   0.0000   0.0000   0.0000   0.0000
     0.0000   0.0000

          k = 0.1500 0.3753 0.1550 (  2509 PWs)   bands (ev):

  -114.3171-114.3166 -68.6540 -68.6531 -68.6488 -68.6486 -68.6480 -68.6475
    -8.6368  -8.3551   2.7762   2.9307   3.2990   3.3933   3.5700   3.6476
     4.2409   4.3779   4.4887   4.6130   5.3576   5.9890   6.4699   6.7380
     7.7174   7.9612  13.5955  15.5997  17.4565  17.7309  19.6718  20.3246
    21.0598  23.6051  24.5050  26.3017  28.7105  30.3465  31.5661  31.6881
    33.8274  34.7513  35.3205  36.3103  37.1962  38.0381  38.4836  39.1513
    39.9036  42.2543

     occupation numbers 
     1.0000   1.0000   1.0000   1.0000   1.0000   1.0000   1.0000   1.0000
     1.0000   1.0000   1.0000   1.0000   1.0000   1.0000   1.0000   1.0000
     1.0000   1.0000   1.0000   1.0000   1.0000   1.0000   1.0000   1.0000
     1.0000   1.0000   0.0000   0.0000   0.0000   0.0000   0.0000   0.0000
     0.0000   0.0000   0.0000   0.0000   0.0000   0.0000   0.0000   0.0000
     0.0000   0.0000   0.0000   0.0000   0.0000   0.0000   0.0000   0.0000
     0.0000   0.0000

          k = 0.1500 0.3753 0.2583 (  2509 PWs)   bands (ev):

  -114.3170-114.3167 -68.6539 -68.6534 -68.6486 -68.6484 -68.6480 -68.6475
    -8.5454  -8.4421   2.7136   2.7620   3.3332   3.3653   3.5072   3.5533
     4.3608   4.4061   4.4663   4.5154   5.6319   5.8575   6.9794   7.1001
     7.4405   7.7257  14.0421  14.7697  17.6985  17.8280  19.4819  19.7616
    21.9479  22.9001  25.2163  26.1372  28.5108  29.1955  31.7849  32.1009
    34.2820  34.4032  35.5812  36.1453  37.8631  38.6377  38.9887  39.4303
    40.1087  41.6697

     occupation numbers 
     1.0000   1.0000   1.0000   1.0000   1.0000   1.0000   1.0000   1.0000
     1.0000   1.0000   1.0000   1.0000   1.0000   1.0000   1.0000   1.0000
     1.0000   1.0000   1.0000   1.0000   1.0000   1.0000   1.0000   1.0000
     1.0000   1.0000   0.0000   0.0000   0.0000   0.0000   0.0000   0.0000
     0.0000   0.0000   0.0000   0.0000   0.0000   0.0000   0.0000   0.0000
     0.0000   0.0000   0.0000   0.0000   0.0000   0.0000   0.0000   0.0000
     0.0000   0.0000

          k = 0.1500 0.4907 0.0517 (  2506 PWs)   bands (ev):

  -114.3168-114.3167 -68.6540 -68.6529 -68.6490 -68.6487 -68.6484 -68.6477
    -8.5228  -8.2904   2.8921   3.1448   3.3068   3.5581   3.7943   3.8685
     4.2430   4.3463   4.5340   4.7163   4.9144   5.5019   5.9488   6.3302
     7.4897   7.7014  14.5879  16.2160  16.6605  17.4057  19.3944  20.6483
    20.9417  22.7953  24.6038  27.4585  29.0436  30.0059  31.2292  33.0046
    34.5242  34.8615  35.3947  36.3304  36.6244  37.0393  38.0123  40.8455
    41.5635  42.4209

     occupation numbers 
     1.0000   1.0000   1.0000   1.0000   1.0000   1.0000   1.0000   1.0000
     1.0000   1.0000   1.0000   1.0000   1.0000   1.0000   1.0000   1.0000
     1.0000   1.0000   1.0000   1.0000   1.0000   1.0000   1.0000   1.0000
     1.0000   1.0000   0.0000   0.0000   0.0000   0.0000   0.0000   0.0000
     0.0000   0.0000   0.0000   0.0000   0.0000   0.0000   0.0000   0.0000
     0.0000   0.0000   0.0000   0.0000   0.0000   0.0000   0.0000   0.0000
     0.0000   0.0000

          k = 0.1500 0.4907 0.1550 (  2506 PWs)   bands (ev):

  -114.3169-114.3167 -68.6539 -68.6532 -68.6490 -68.6487 -68.6483 -68.6476
    -8.4879  -8.3175   2.8197   2.9696   3.3188   3.5242   3.7018   3.7516
     4.2997   4.4048   4.5322   4.6985   4.9893   5.4669   6.2188   6.6919
     7.4052   7.7155  14.5432  15.7680  16.9785  17.4901  18.9927  20.1331
    21.5513  23.1479  24.6264  26.8658  28.6216  30.4421  31.2246  32.1293
    34.4246  34.8218  35.4786  36.6988  37.5711  37.9797  38.8912  41.1796
    41.8124  42.0122

     occupation numbers 
     1.0000   1.0000   1.0000   1.0000   1.0000   1.0000   1.0000   1.0000
     1.0000   1.0000   1.0000   1.0000   1.0000   1.0000   1.0000   1.0000
     1.0000   1.0000   1.0000   1.0000   1.0000   1.0000   1.0000   1.0000
     1.0000   1.0000   0.0000   0.0000   0.0000   0.0000   0.0000   0.0000
     0.0000   0.0000   0.0000   0.0000   0.0000   0.0000   0.0000   0.0000
     0.0000   0.0000   0.0000   0.0000   0.0000   0.0000   0.0000   0.0000
     0.0000   0.0000

          k = 0.1500 0.4907 0.2583 (  2505 PWs)   bands (ev):

  -114.3168-114.3167 -68.6538 -68.6534 -68.6487 -68.6486 -68.6480 -68.6478
    -8.4300  -8.3675   2.7503   2.7938   3.3850   3.4728   3.6400   3.6501
     4.3762   4.4113   4.5601   4.6263   5.1495   5.3202   6.6237   7.0107
     7.3023   7.6576  14.7113  15.1909  17.2609  17.4661  18.9458  19.4375
    22.4772  23.1713  24.8274  25.7438  29.0561  30.0509  31.2475  31.6633
    34.5565  34.8911  35.7496  36.3525  38.2548  39.2756  39.9518  41.5282
    41.7335  42.4324

     occupation numbers 
     1.0000   1.0000   1.0000   1.0000   1.0000   1.0000   1.0000   1.0000
     1.0000   1.0000   1.0000   1.0000   1.0000   1.0000   1.0000   1.0000
     1.0000   1.0000   1.0000   1.0000   1.0000   1.0000   1.0000   1.0000
     1.0000   1.0000   0.0000   0.0000   0.0000   0.0000   0.0000   0.0000
     0.0000   0.0000   0.0000   0.0000   0.0000   0.0000   0.0000   0.0000
     0.0000   0.0000   0.0000   0.0000   0.0000   0.0000   0.0000   0.0000
     0.0000   0.0000

          k = 0.1500 0.6062 0.0517 (  2498 PWs)   bands (ev):

  -114.3167-114.3167 -68.6539 -68.6529 -68.6489 -68.6484 -68.6483 -68.6477
    -8.4772  -8.2950   2.9056   3.1926   3.2979   3.5919   3.7854   3.8978
     4.2807   4.3590   4.5472   4.5963   5.0478   5.3565   5.7801   6.4245
     7.3410   7.6464  15.0162  16.0869  16.4070  17.3885  19.2784  20.6198
    21.2900  22.4699  24.5791  27.9876  28.7895  29.9583  31.1187  33.1439
    34.5045  34.7514  35.7958  36.0739  36.7884  37.5199  38.3324  39.4619
    42.1959  43.0756

     occupation numbers 
     1.0000   1.0000   1.0000   1.0000   1.0000   1.0000   1.0000   1.0000
     1.0000   1.0000   1.0000   1.0000   1.0000   1.0000   1.0000   1.0000
     1.0000   1.0000   1.0000   1.0000   1.0000   1.0000   1.0000   1.0000
     1.0000   1.0000   0.0000   0.0000   0.0000   0.0000   0.0000   0.0000
     0.0000   0.0000   0.0000   0.0000   0.0000   0.0000   0.0000   0.0000
     0.0000   0.0000   0.0000   0.0000   0.0000   0.0000   0.0000   0.0000
     0.0000   0.0000

          k = 0.1500 0.6062 0.1550 (  2503 PWs)   bands (ev):

  -114.3168-114.3167 -68.6540 -68.6531 -68.6489 -68.6485 -68.6483 -68.6476
    -8.4486  -8.3150   2.8363   2.9839   3.3149   3.5727   3.7263   3.7824
     4.3447   4.3907   4.5685   4.6394   4.9974   5.2636   6.1171   6.7972
     7.3034   7.6418  14.8340  15.7758  16.7648  17.4788  18.8372  20.0814
    21.8562  22.8898  24.6448  27.1212  28.4760  30.4867  31.1622  32.1551
    34.5386  34.8145  35.5776  36.7632  37.7248  37.9977  39.2275  40.3338
    42.0885  43.0627

     occupation numbers 
     1.0000   1.0000   1.0000   1.0000   1.0000   1.0000   1.0000   1.0000
     1.0000   1.0000   1.0000   1.0000   1.0000   1.0000   1.0000   1.0000
     1.0000   1.0000   1.0000   1.0000   1.0000   1.0000   1.0000   1.0000
     1.0000   1.0000   0.0000   0.0000   0.0000   0.0000   0.0000   0.0000
     0.0000   0.0000   0.0000   0.0000   0.0000   0.0000   0.0000   0.0000
     0.0000   0.0000   0.0000   0.0000   0.0000   0.0000   0.0000   0.0000
     0.0000   0.0000

          k = 0.1500 0.6062 0.2583 (  2507 PWs)   bands (ev):

  -114.3168-114.3168 -68.6538 -68.6536 -68.6488 -68.6486 -68.6481 -68.6478
    -8.4021  -8.3531   2.7645   2.8029   3.3894   3.5005   3.6830   3.6899
     4.3842   4.3981   4.6215   4.6588   5.0284   5.1359   6.5433   6.9664
     7.3179   7.6332  14.8876  15.2878  17.1176  17.3998  18.8183  19.3604
    22.7167  23.1398  24.7786  25.6722  29.1591  30.3276  31.0849  31.4361
    34.7412  35.0258  35.7640  36.3982  38.0618  39.1503  40.4556  41.3008
    42.4814  42.9327

     occupation numbers 
     1.0000   1.0000   1.0000   1.0000   1.0000   1.0000   1.0000   1.0000
     1.0000   1.0000   1.0000   1.0000   1.0000   1.0000   1.0000   1.0000
     1.0000   1.0000   1.0000   1.0000   1.0000   1.0000   1.0000   1.0000
     1.0000   1.0000   0.0000   0.0000   0.0000   0.0000   0.0000   0.0000
     0.0000   0.0000   0.0000   0.0000   0.0000   0.0000   0.0000   0.0000
     0.0000   0.0000   0.0000   0.0000   0.0000   0.0000   0.0000   0.0000
     0.0000   0.0000

          k = 0.1500-0.4330 0.0517 (  2506 PWs)   bands (ev):

  -114.3170-114.3166 -68.6539 -68.6528 -68.6490 -68.6487 -68.6481 -68.6476
    -8.5983  -8.2925   2.8698   3.0949   3.3064   3.5058   3.7789   3.8167
     4.1853   4.3395   4.5215   4.7488   4.9405   5.6378   6.1956   6.3127
     7.6927   7.8082  14.0283  16.2686  17.0471  17.4332  19.5923  20.4953
    20.8490  23.1646  24.6109  26.8212  29.2004  30.1002  31.3878  32.7911
    34.0618  34.8827  35.3519  36.1457  36.5947  37.2200  37.8429  39.8958
    41.4777  42.3914

     occupation numbers 
     1.0000   1.0000   1.0000   1.0000   1.0000   1.0000   1.0000   1.0000
     1.0000   1.0000   1.0000   1.0000   1.0000   1.0000   1.0000   1.0000
     1.0000   1.0000   1.0000   1.0000   1.0000   1.0000   1.0000   1.0000
     1.0000   1.0000   0.0000   0.0000   0.0000   0.0000   0.0000   0.0000
     0.0000   0.0000   0.0000   0.0000   0.0000   0.0000   0.0000   0.0000
     0.0000   0.0000   0.0000   0.0000   0.0000   0.0000   0.0000   0.0000
     0.0000   0.0000

          k = 0.1500-0.4330 0.1550 (  2502 PWs)   bands (ev):

  -114.3169-114.3166 -68.6538 -68.6532 -68.6488 -68.6485 -68.6481 -68.6474
    -8.5543  -8.3300   2.7954   2.9493   3.3155   3.4611   3.6403   3.7068
     4.2611   4.4009   4.5078   4.6637   5.1568   5.7157   6.3951   6.5979
     7.5484   7.8337  14.0994  15.7193  17.2867  17.5207  19.2867  20.2239
    21.2257  23.4303  24.5658  26.5640  28.7143  30.3763  31.3853  31.9754
    34.4105  34.5509  35.3797  36.5415  37.4671  37.9917  38.8991  39.9295
    41.0974  42.2746

     occupation numbers 
     1.0000   1.0000   1.0000   1.0000   1.0000   1.0000   1.0000   1.0000
     1.0000   1.0000   1.0000   1.0000   1.0000   1.0000   1.0000   1.0000
     1.0000   1.0000   1.0000   1.0000   1.0000   1.0000   1.0000   1.0000
     1.0000   1.0000   0.0000   0.0000   0.0000   0.0000   0.0000   0.0000
     0.0000   0.0000   0.0000   0.0000   0.0000   0.0000   0.0000   0.0000
     0.0000   0.0000   0.0000   0.0000   0.0000   0.0000   0.0000   0.0000
     0.0000   0.0000

          k = 0.1500-0.4330 0.2583 (  2507 PWs)   bands (ev):

  -114.3169-114.3167 -68.6540 -68.6533 -68.6487 -68.6486 -68.6482 -68.6477
    -8.4800  -8.3978   2.7301   2.7782   3.3680   3.4232   3.5710   3.6039
     4.3685   4.4160   4.5068   4.5663   5.3747   5.5753   6.7766   7.0659
     7.3236   7.6915  14.4105  15.0132  17.4918  17.5918  19.1800  19.5787
    22.1876  23.0868  24.9650  25.9053  28.8269  29.6430  31.5261  31.9226
    34.4027  34.6248  35.6971  36.2795  38.4414  39.2502  39.4297  40.4510
    40.5675  42.1727

     occupation numbers 
     1.0000   1.0000   1.0000   1.0000   1.0000   1.0000   1.0000   1.0000
     1.0000   1.0000   1.0000   1.0000   1.0000   1.0000   1.0000   1.0000
     1.0000   1.0000   1.0000   1.0000   1.0000   1.0000   1.0000   1.0000
     1.0000   1.0000   0.0000   0.0000   0.0000   0.0000   0.0000   0.0000
     0.0000   0.0000   0.0000   0.0000   0.0000   0.0000   0.0000   0.0000
     0.0000   0.0000   0.0000   0.0000   0.0000   0.0000   0.0000   0.0000
     0.0000   0.0000

          k = 0.1500-0.3175 0.0517 (  2511 PWs)   bands (ev):

  -114.3172-114.3166 -68.6541 -68.6526 -68.6488 -68.6485 -68.6476 -68.6473
    -8.7892  -8.3300   2.8404   3.0536   3.2824   3.3594   3.6329   3.6811
     4.1512   4.3011   4.4988   4.6425   5.0023   6.1416   6.4466   6.9723
     8.0736   8.1289  12.8296  16.1403  17.1424  18.0178  19.8835  20.8712
    21.2327  23.8240  24.3428  25.6097  29.3808  30.3493  30.9522  32.1641
    33.1283  34.5576  35.2658  35.8912  36.4276  37.2975  37.4165  38.7307
    39.8222  40.9188

     occupation numbers 
     1.0000   1.0000   1.0000   1.0000   1.0000   1.0000   1.0000   1.0000
     1.0000   1.0000   1.0000   1.0000   1.0000   1.0000   1.0000   1.0000
     1.0000   1.0000   1.0000   1.0000   1.0000   1.0000   1.0000   1.0000
     1.0000   1.0000   0.0000   0.0000   0.0000   0.0000   0.0000   0.0000
     0.0000   0.0000   0.0000   0.0000   0.0000   0.0000   0.0000   0.0000
     0.0000   0.0000   0.0000   0.0000   0.0000   0.0000   0.0000   0.0000
     0.0000   0.0000

          k = 0.1500-0.3175 0.1550 (  2513 PWs)   bands (ev):

  -114.3171-114.3167 -68.6542 -68.6529 -68.6487 -68.6484 -68.6477 -68.6475
    -8.7268  -8.3902   2.7707   2.9180   3.2749   3.3220   3.5069   3.5751
     4.2363   4.3459   4.4748   4.5749   5.4761   6.3012   6.5326   7.0311
     7.9062   8.0773  13.0791  15.3901  17.4632  18.1277  20.0665  20.4313
    21.1561  23.5341  24.6082  26.0546  28.6777  30.3689  31.2958  31.7069
    33.2490  34.6245  35.4355  35.7114  36.7929  37.6578  38.0844  38.6658
    39.6896  41.4540

     occupation numbers 
     1.0000   1.0000   1.0000   1.0000   1.0000   1.0000   1.0000   1.0000
     1.0000   1.0000   1.0000   1.0000   1.0000   1.0000   1.0000   1.0000
     1.0000   1.0000   1.0000   1.0000   1.0000   1.0000   1.0000   1.0000
     1.0000   1.0000   0.0000   0.0000   0.0000   0.0000   0.0000   0.0000
     0.0000   0.0000   0.0000   0.0000   0.0000   0.0000   0.0000   0.0000
     0.0000   0.0000   0.0000   0.0000   0.0000   0.0000   0.0000   0.0000
     0.0000   0.0000

          k = 0.1500-0.3175 0.2583 (  2510 PWs)   bands (ev):

  -114.3170-114.3168 -68.6537 -68.6534 -68.6484 -68.6482 -68.6478 -68.6476
    -8.6191  -8.4957   2.7080   2.7509   3.2911   3.3099   3.4509   3.4943
     4.3542   4.3862   4.4390   4.4816   5.8643   6.1384   7.0980   7.2650
     7.6284   7.7618  13.6465  14.4756  17.8565  18.1525  19.8038  19.9610
    21.8265  22.6873  25.5631  26.3449  28.2456  28.7939  31.8674  32.1693
    33.9946  34.4597  35.2021  35.5446  37.0176  37.5981  38.8002  39.2166
    40.1753  41.0501

     occupation numbers 
     1.0000   1.0000   1.0000   1.0000   1.0000   1.0000   1.0000   1.0000
     1.0000   1.0000   1.0000   1.0000   1.0000   1.0000   1.0000   1.0000
     1.0000   1.0000   1.0000   1.0000   1.0000   1.0000   1.0000   1.0000
     1.0000   1.0000   0.0000   0.0000   0.0000   0.0000   0.0000   0.0000
     0.0000   0.0000   0.0000   0.0000   0.0000   0.0000   0.0000   0.0000
     0.0000   0.0000   0.0000   0.0000   0.0000   0.0000   0.0000   0.0000
     0.0000   0.0000

          k = 0.1500-0.2021 0.0517 (  2512 PWs)   bands (ev):

  -114.3172-114.3166 -68.6542 -68.6522 -68.6483 -68.6480 -68.6473 -68.6469
    -8.9741  -8.3920   2.8632   3.0833   3.2137   3.2603   3.4641   3.4775
     4.1833   4.2650   4.4871   4.5943   4.8799   6.7558   7.0674   7.5452
[...]
    -8.3609  -8.3313   3.0598   3.2077   3.2213   3.5489   3.8672   3.8857
     4.2269   4.3117   4.6055   4.6417   5.1235   5.2262   5.4124   6.7872
     7.1266   7.3127  16.2345  16.5845  16.6014  17.0088  18.3895  18.6656
    22.3688  23.5077  23.9936  27.2405  28.8565  29.4830  32.0276  32.9648
    34.3556  34.5832  36.3472  36.7522  37.6147  37.9129  38.0656  38.2564
    43.7454  44.0296

     occupation numbers 
     1.0000   1.0000   1.0000   1.0000   1.0000   1.0000   1.0000   1.0000
     1.0000   1.0000   1.0000   1.0000   1.0000   1.0000   1.0000   1.0000
     1.0000   1.0000   1.0000   1.0000   1.0000   1.0000   1.0000   1.0000
     1.0000   1.0000   0.0000   0.0000   0.0000   0.0000   0.0000   0.0000
     0.0000   0.0000   0.0000   0.0000   0.0000   0.0000   0.0000   0.0000
     0.0000   0.0000   0.0000   0.0000   0.0000   0.0000   0.0000   0.0000
     0.0000   0.0000

          k = 0.3500 0.6062 0.2583 (  2503 PWs)   bands (ev):

  -114.3168-114.3167 -68.6533 -68.6533 -68.6485 -68.6485 -68.6483 -68.6481
    -8.3467  -8.3359   3.0266   3.0446   3.2048   3.3594   3.8264   3.8312
     4.2582   4.2884   4.7538   4.7841   5.0685   5.1194   5.8683   6.3614
     7.4718   7.5421  16.3311  16.5007  16.8521  17.1008  17.6706  17.9087
    23.4978  24.4294  24.7861  25.2834  28.2160  28.5364  32.2888  32.5867
    34.5300  34.6983  36.0760  36.2017  39.0463  40.0851  40.1335  40.4468
    42.9452  43.5659

     occupation numbers 
     1.0000   1.0000   1.0000   1.0000   1.0000   1.0000   1.0000   1.0000
     1.0000   1.0000   1.0000   1.0000   1.0000   1.0000   1.0000   1.0000
     1.0000   1.0000   1.0000   1.0000   1.0000   1.0000   1.0000   1.0000
     1.0000   1.0000   0.0000   0.0000   0.0000   0.0000   0.0000   0.0000
     0.0000   0.0000   0.0000   0.0000   0.0000   0.0000   0.0000   0.0000
     0.0000   0.0000   0.0000   0.0000   0.0000   0.0000   0.0000   0.0000
     0.0000   0.0000

          k = 0.3500 0.7217 0.0517 (  2488 PWs)   bands (ev):

  -114.3166-114.3165 -68.6538 -68.6527 -68.6489 -68.6482 -68.6480 -68.6476
    -8.4648  -8.2954   2.9610   3.2332   3.3626   3.5430   3.8396   3.9171
     4.2411   4.3238   4.5414   4.6198   5.0061   5.4395   5.6220   6.4100
     7.2758   7.5095  15.1792  16.2862  16.6455  17.3707  19.3074  20.1371
    21.1215  22.5739  24.2487  27.9793  29.4057  30.8054  31.1887  32.3333
    34.6251  34.8817  35.4931  35.9478  36.5895  36.9809  37.9370  39.2419
    42.7380  43.2102

     occupation numbers 
     1.0000   1.0000   1.0000   1.0000   1.0000   1.0000   1.0000   1.0000
     1.0000   1.0000   1.0000   1.0000   1.0000   1.0000   1.0000   1.0000
     1.0000   1.0000   1.0000   1.0000   1.0000   1.0000   1.0000   1.0000
     1.0000   1.0000   0.0000   0.0000   0.0000   0.0000   0.0000   0.0000
     0.0000   0.0000   0.0000   0.0000   0.0000   0.0000   0.0000   0.0000
     0.0000   0.0000   0.0000   0.0000   0.0000   0.0000   0.0000   0.0000
     0.0000   0.0000

          k = 0.3500 0.7217 0.1550 (  2496 PWs)   bands (ev):

  -114.3167-114.3166 -68.6537 -68.6533 -68.6486 -68.6484 -68.6480 -68.6478
    -8.4379  -8.3136   2.9101   3.0616   3.2926   3.5248   3.7561   3.7891
     4.2934   4.3796   4.5659   4.7055   4.9843   5.3709   5.8901   6.7893
     7.1580   7.5967  15.1061  16.0307  16.8879  17.5008  18.6296  19.5365
    21.7991  23.1987  24.6840  26.9428  28.5452  30.4857  31.6582  31.9631
    34.2897  34.8487  35.7472  36.8497  37.5724  37.8372  38.5612  40.2494
    42.4548  43.1437

     occupation numbers 
     1.0000   1.0000   1.0000   1.0000   1.0000   1.0000   1.0000   1.0000
     1.0000   1.0000   1.0000   1.0000   1.0000   1.0000   1.0000   1.0000
     1.0000   1.0000   1.0000   1.0000   1.0000   1.0000   1.0000   1.0000
     1.0000   1.0000   0.0000   0.0000   0.0000   0.0000   0.0000   0.0000
     0.0000   0.0000   0.0000   0.0000   0.0000   0.0000   0.0000   0.0000
     0.0000   0.0000   0.0000   0.0000   0.0000   0.0000   0.0000   0.0000
     0.0000   0.0000

          k = 0.3500 0.7217 0.2583 (  2506 PWs)   bands (ev):

  -114.3168-114.3167 -68.6539 -68.6535 -68.6487 -68.6486 -68.6480 -68.6480
    -8.3942  -8.3486   2.8418   2.8818   3.3357   3.4413   3.7030   3.7074
     4.3492   4.3778   4.6320   4.7019   5.0775   5.2272   6.3065   6.7403
     7.3477   7.6297  15.2159  15.6004  17.1818  17.4748  18.3840  18.8405
    22.8166  23.5686  24.9385  25.6676  28.6223  29.6018  31.5617  31.9328
    34.4483  34.7808  36.2707  36.5817  38.0919  39.4753  40.0918  41.3395
    42.3148  43.1332

     occupation numbers 
     1.0000   1.0000   1.0000   1.0000   1.0000   1.0000   1.0000   1.0000
     1.0000   1.0000   1.0000   1.0000   1.0000   1.0000   1.0000   1.0000
     1.0000   1.0000   1.0000   1.0000   1.0000   1.0000   1.0000   1.0000
     1.0000   1.0000   0.0000   0.0000   0.0000   0.0000   0.0000   0.0000
     0.0000   0.0000   0.0000   0.0000   0.0000   0.0000   0.0000   0.0000
     0.0000   0.0000   0.0000   0.0000   0.0000   0.0000   0.0000   0.0000
     0.0000   0.0000

          k = 0.3500-0.3175 0.0517 (  2510 PWs)   bands (ev):

  -114.3169-114.3168 -68.6540 -68.6527 -68.6490 -68.6488 -68.6486 -68.6474
    -8.5834  -8.2924   2.8118   3.0854   3.2954   3.5585   3.7656   3.8162
     4.2382   4.3640   4.5198   4.7371   4.9029   5.5015   6.1505   6.4832
     7.6765   7.8862  14.0424  16.1481  16.6737  17.4017  19.4878  20.8548
    21.3374  22.9335  24.6673  27.1852  28.5167  29.4083  31.3331  33.5701
    34.1641  35.0567  35.5103  36.3684  36.7855  37.5036  37.9922  40.2123
    41.3683  41.7828

     occupation numbers 
     1.0000   1.0000   1.0000   1.0000   1.0000   1.0000   1.0000   1.0000
     1.0000   1.0000   1.0000   1.0000   1.0000   1.0000   1.0000   1.0000
     1.0000   1.0000   1.0000   1.0000   1.0000   1.0000   1.0000   1.0000
     1.0000   1.0000   0.0000   0.0000   0.0000   0.0000   0.0000   0.0000
     0.0000   0.0000   0.0000   0.0000   0.0000   0.0000   0.0000   0.0000
     0.0000   0.0000   0.0000   0.0000   0.0000   0.0000   0.0000   0.0000
     0.0000   0.0000

          k = 0.3500-0.3175 0.1550 (  2504 PWs)   bands (ev):

  -114.3169-114.3166 -68.6540 -68.6529 -68.6490 -68.6488 -68.6482 -68.6473
    -8.5412  -8.3278   2.7398   2.9094   3.3348   3.5184   3.6589   3.7153
     4.2976   4.4076   4.5032   4.6509   5.0675   5.5692   6.4393   6.7262
     7.6492   7.8145  14.0426  15.5459  17.0620  17.4713  19.2986  20.7289
    21.5473  23.0234  24.2903  26.9274  28.6573  30.2907  30.6909  32.6274
    34.2600  34.9610  35.5872  36.3238  37.6016  38.0964  39.1730  40.1992
    41.1532  42.0612

     occupation numbers 
     1.0000   1.0000   1.0000   1.0000   1.0000   1.0000   1.0000   1.0000
     1.0000   1.0000   1.0000   1.0000   1.0000   1.0000   1.0000   1.0000
     1.0000   1.0000   1.0000   1.0000   1.0000   1.0000   1.0000   1.0000
     1.0000   1.0000   0.0000   0.0000   0.0000   0.0000   0.0000   0.0000
     0.0000   0.0000   0.0000   0.0000   0.0000   0.0000   0.0000   0.0000
     0.0000   0.0000   0.0000   0.0000   0.0000   0.0000   0.0000   0.0000
     0.0000   0.0000

          k = 0.3500-0.3175 0.2583 (  2504 PWs)   bands (ev):

  -114.3168-114.3168 -68.6538 -68.6532 -68.6488 -68.6486 -68.6480 -68.6477
    -8.4703  -8.3920   2.6793   2.7306   3.4140   3.4874   3.5837   3.6071
     4.3882   4.4242   4.4985   4.5580   5.2550   5.4384   6.9192   7.1752
     7.3728   7.6734  14.2857  14.8545  17.3360  17.4834  19.4073  20.0049
    22.2981  22.8291  24.5969  25.7545  29.4173  30.2487  31.1262  31.5762
    34.5588  35.0393  35.3998  35.8336  38.3965  39.1606  39.8622  40.7263
    40.9454  42.3162

     occupation numbers 
     1.0000   1.0000   1.0000   1.0000   1.0000   1.0000   1.0000   1.0000
     1.0000   1.0000   1.0000   1.0000   1.0000   1.0000   1.0000   1.0000
     1.0000   1.0000   1.0000   1.0000   1.0000   1.0000   1.0000   1.0000
     1.0000   1.0000   0.0000   0.0000   0.0000   0.0000   0.0000   0.0000
     0.0000   0.0000   0.0000   0.0000   0.0000   0.0000   0.0000   0.0000
     0.0000   0.0000   0.0000   0.0000   0.0000   0.0000   0.0000   0.0000
     0.0000   0.0000

          k = 0.3500-0.2021 0.0517 (  2517 PWs)   bands (ev):

  -114.3171-114.3168 -68.6541 -68.6526 -68.6492 -68.6485 -68.6485 -68.6476
    -8.6966  -8.3086   2.7320   3.0670   3.2925   3.4945   3.6999   3.7568
     4.1941   4.3518   4.5057   4.6474   5.0055   5.5648   6.4153   6.8928
     7.9224   8.1426  13.2350  16.0903  16.7755  17.4989  19.6944  21.1165
    22.1714  22.8628  24.3433  27.1309  27.9532  28.6254  31.5491  33.6326
    34.6653  34.7635  35.4371  36.4660  36.8270  37.8450  37.9980  38.5385
    39.3324  40.8598

     occupation numbers 
     1.0000   1.0000   1.0000   1.0000   1.0000   1.0000   1.0000   1.0000
     1.0000   1.0000   1.0000   1.0000   1.0000   1.0000   1.0000   1.0000
     1.0000   1.0000   1.0000   1.0000   1.0000   1.0000   1.0000   1.0000
     1.0000   1.0000   0.0000   0.0000   0.0000   0.0000   0.0000   0.0000
     0.0000   0.0000   0.0000   0.0000   0.0000   0.0000   0.0000   0.0000
     0.0000   0.0000   0.0000   0.0000   0.0000   0.0000   0.0000   0.0000
     0.0000   0.0000

          k = 0.3500-0.2021 0.1550 (  2515 PWs)   bands (ev):

  -114.3171-114.3167 -68.6544 -68.6528 -68.6489 -68.6487 -68.6485 -68.6473
    -8.6426  -8.3582   2.6724   2.8835   3.3356   3.4559   3.6007   3.6313
     4.2682   4.3694   4.4795   4.5845   5.2898   5.7959   6.5025   7.0754
     7.9272   7.9848  13.3519  15.3227  17.2377  17.5793  19.6349  21.2236
    22.2218  22.7324  23.5791  27.0298  28.5877  29.8011  30.4466  33.1819
    33.9069  35.3898  35.3908  36.0833  37.0327  37.8637  38.7418  39.1579
    40.1489  41.1341

     occupation numbers 
     1.0000   1.0000   1.0000   1.0000   1.0000   1.0000   1.0000   1.0000
     1.0000   1.0000   1.0000   1.0000   1.0000   1.0000   1.0000   1.0000
     1.0000   1.0000   1.0000   1.0000   1.0000   1.0000   1.0000   1.0000
     1.0000   1.0000   0.0000   0.0000   0.0000   0.0000   0.0000   0.0000
     0.0000   0.0000   0.0000   0.0000   0.0000   0.0000   0.0000   0.0000
     0.0000   0.0000   0.0000   0.0000   0.0000   0.0000   0.0000   0.0000
     0.0000   0.0000

          k = 0.3500-0.2021 0.2583 (  2514 PWs)   bands (ev):

  -114.3169-114.3169 -68.6540 -68.6532 -68.6489 -68.6488 -68.6482 -68.6476
    -8.5503  -8.4461   2.6285   2.6930   3.4172   3.4516   3.4998   3.5245
     4.3799   4.4011   4.4406   4.4907   5.5267   5.7330   7.0773   7.3762
     7.6623   7.7071  13.7617  14.4821  17.5263  17.6475  19.8419  20.5750
    22.3442  22.5326  24.2296  25.7303  29.7660  30.5148  30.6728  31.3584
    34.1562  34.8897  35.5609  35.8178  37.6267  37.9884  39.6121  40.0632
    40.5913  41.6268

     occupation numbers 
     1.0000   1.0000   1.0000   1.0000   1.0000   1.0000   1.0000   1.0000
     1.0000   1.0000   1.0000   1.0000   1.0000   1.0000   1.0000   1.0000
     1.0000   1.0000   1.0000   1.0000   1.0000   1.0000   1.0000   1.0000
     1.0000   1.0000   0.0000   0.0000   0.0000   0.0000   0.0000   0.0000
     0.0000   0.0000   0.0000   0.0000   0.0000   0.0000   0.0000   0.0000
     0.0000   0.0000   0.0000   0.0000   0.0000   0.0000   0.0000   0.0000
     0.0000   0.0000

          k = 0.4500 0.7794 0.0517 (  2501 PWs)   bands (ev):

  -114.3168-114.3166 -68.6538 -68.6529 -68.6491 -68.6487 -68.6485 -68.6471
    -8.4949  -8.2944   2.8563   3.0808   3.3087   3.6382   3.7467   3.8791
     4.2997   4.3961   4.5391   4.5912   5.0688   5.2710   5.9487   6.4487
     7.4378   7.7913  14.7831  15.7869  16.3669  17.3772  19.2853  21.1008
    21.3549  22.6687  24.6503  27.7156  28.4680  29.4578  31.1234  33.7987
    34.2426  34.5414  35.9934  36.1769  36.7735  37.8944  39.5621  39.8767
    41.2286  42.9332

     occupation numbers 
     1.0000   1.0000   1.0000   1.0000   1.0000   1.0000   1.0000   1.0000
     1.0000   1.0000   1.0000   1.0000   1.0000   1.0000   1.0000   1.0000
     1.0000   1.0000   1.0000   1.0000   1.0000   1.0000   1.0000   1.0000
     1.0000   1.0000   0.0000   0.0000   0.0000   0.0000   0.0000   0.0000
     0.0000   0.0000   0.0000   0.0000   0.0000   0.0000   0.0000   0.0000
     0.0000   0.0000   0.0000   0.0000   0.0000   0.0000   0.0000   0.0000
     0.0000   0.0000

          k = 0.4500 0.7794 0.1550 (  2496 PWs)   bands (ev):

  -114.3167-114.3166 -68.6539 -68.6527 -68.6487 -68.6484 -68.6483 -68.6473
    -8.4640  -8.3169   2.7761   2.8939   3.3492   3.6066   3.6982   3.7733
     4.3844   4.4101   4.5468   4.6058   5.0092   5.1837   6.3497   6.7673
     7.4897   7.6959  14.5399  15.4862  16.7351  17.4434  19.0537  20.6712
    21.8490  22.8146  24.2678  27.1643  28.8596  30.1419  30.6262  32.9219
    34.1638  34.8242  35.7756  36.3082  37.8894  38.1982  40.1422  40.2810
    41.9949  42.8105

     occupation numbers 
     1.0000   1.0000   1.0000   1.0000   1.0000   1.0000   1.0000   1.0000
     1.0000   1.0000   1.0000   1.0000   1.0000   1.0000   1.0000   1.0000
     1.0000   1.0000   1.0000   1.0000   1.0000   1.0000   1.0000   1.0000
     1.0000   1.0000   0.0000   0.0000   0.0000   0.0000   0.0000   0.0000
     0.0000   0.0000   0.0000   0.0000   0.0000   0.0000   0.0000   0.0000
     0.0000   0.0000   0.0000   0.0000   0.0000   0.0000   0.0000   0.0000
     0.0000   0.0000

          k = 0.4500 0.7794 0.2583 (  2508 PWs)   bands (ev):

  -114.3168-114.3168 -68.6540 -68.6535 -68.6488 -68.6485 -68.6482 -68.6479
    -8.4133  -8.3593   2.6976   2.7278   3.4391   3.5507   3.6575   3.6670
     4.4211   4.4213   4.5893   4.6134   5.0097   5.0790   6.7938   7.2037
     7.2763   7.6322  14.5655  14.9755  17.0958  17.3569  19.2284  19.8979
    22.5465  22.8384  24.4789  25.6938  29.8660  30.4269  31.0360  31.3880
    34.7555  34.9667  35.4048  35.8194  38.4010  39.1542  40.6013  41.3519
    42.5260  42.5456

     occupation numbers 
     1.0000   1.0000   1.0000   1.0000   1.0000   1.0000   1.0000   1.0000
     1.0000   1.0000   1.0000   1.0000   1.0000   1.0000   1.0000   1.0000
     1.0000   1.0000   1.0000   1.0000   1.0000   1.0000   1.0000   1.0000
     1.0000   1.0000   0.0000   0.0000   0.0000   0.0000   0.0000   0.0000
     0.0000   0.0000   0.0000   0.0000   0.0000   0.0000   0.0000   0.0000
     0.0000   0.0000   0.0000   0.0000   0.0000   0.0000   0.0000   0.0000
     0.0000   0.0000

          k = 0.4500-0.2598 0.0517 (  2503 PWs)   bands (ev):

  -114.3168-114.3167 -68.6539 -68.6527 -68.6489 -68.6486 -68.6484 -68.6474
    -8.5401  -8.2929   2.7862   2.9993   3.3245   3.6527   3.7310   3.8335
     4.2996   4.4239   4.5175   4.6551   4.9412   5.3268   6.0607   6.6007
     7.5885   7.9730  14.2676  15.7035  16.3969  17.3634  19.3494  21.1299
    22.0038  22.9824  24.3507  27.3027  28.1809  29.1800  31.1891  33.5761
    34.4383  34.8889  35.8478  36.4042  37.1727  37.9834  39.5509  40.7099
    41.1805  41.6176

     occupation numbers 
     1.0000   1.0000   1.0000   1.0000   1.0000   1.0000   1.0000   1.0000
     1.0000   1.0000   1.0000   1.0000   1.0000   1.0000   1.0000   1.0000
     1.0000   1.0000   1.0000   1.0000   1.0000   1.0000   1.0000   1.0000
     1.0000   1.0000   0.0000   0.0000   0.0000   0.0000   0.0000   0.0000
     0.0000   0.0000   0.0000   0.0000   0.0000   0.0000   0.0000   0.0000
     0.0000   0.0000   0.0000   0.0000   0.0000   0.0000   0.0000   0.0000
     0.0000   0.0000

          k = 0.4500-0.2598 0.1550 (  2509 PWs)   bands (ev):

  -114.3169-114.3167 -68.6541 -68.6529 -68.6489 -68.6488 -68.6484 -68.6475
    -8.5034  -8.3221   2.7047   2.8292   3.3780   3.6039   3.6692   3.7472
     4.3851   4.4308   4.4936   4.6211   4.9609   5.2956   6.5191   6.8086
     7.6993   7.8032  14.1014  15.2566  16.8011  17.4150  19.2960  21.2579
    22.1209  22.8372  23.4598  27.1334  29.7119  29.7428  29.8630  33.4948
    34.0238  35.1803  35.3528  36.0731  37.9119  38.3903  39.8875  40.9962
    41.5544  42.0165

     occupation numbers 
     1.0000   1.0000   1.0000   1.0000   1.0000   1.0000   1.0000   1.0000
     1.0000   1.0000   1.0000   1.0000   1.0000   1.0000   1.0000   1.0000
     1.0000   1.0000   1.0000   1.0000   1.0000   1.0000   1.0000   1.0000
     1.0000   1.0000   0.0000   0.0000   0.0000   0.0000   0.0000   0.0000
     0.0000   0.0000   0.0000   0.0000   0.0000   0.0000   0.0000   0.0000
     0.0000   0.0000   0.0000   0.0000   0.0000   0.0000   0.0000   0.0000
     0.0000   0.0000

          k = 0.4500-0.2598 0.2583 (  2496 PWs)   bands (ev):

  -114.3167-114.3166 -68.6538 -68.6530 -68.6486 -68.6485 -68.6481 -68.6476
    -8.4421  -8.3757   2.6320   2.6678   3.4795   3.5869   3.6125   3.6133
     4.4448   4.4662   4.4786   4.5581   5.0558   5.1805   7.1427   7.1535
     7.5035   7.6066  14.1930  14.6653  17.1427  17.3574  19.6535  20.5200
    22.3340  22.5962  24.0922  25.6781  30.1435  30.5793  30.8190  32.3130
    33.7713  34.7567  35.3002  35.6320  38.6887  39.2588  40.7788  41.1734
    41.6798  41.8425

     occupation numbers 
     1.0000   1.0000   1.0000   1.0000   1.0000   1.0000   1.0000   1.0000
     1.0000   1.0000   1.0000   1.0000   1.0000   1.0000   1.0000   1.0000
     1.0000   1.0000   1.0000   1.0000   1.0000   1.0000   1.0000   1.0000
     1.0000   1.0000   0.0000   0.0000   0.0000   0.0000   0.0000   0.0000
     0.0000   0.0000   0.0000   0.0000   0.0000   0.0000   0.0000   0.0000
     0.0000   0.0000   0.0000   0.0000   0.0000   0.0000   0.0000   0.0000
     0.0000   0.0000

     highest occupied, lowest unoccupied level (ev):     8.7858    9.9673

     Writing all to output data dir ./TMP/zno.save/ :
     XML data file, pseudopotentials, collected wavefunctions

     init_run     :      1.40s CPU      1.41s WALL (       1 calls)
     electrons    :    159.33s CPU    161.15s WALL (       1 calls)

     Called by init_run:
     wfcinit      :      0.00s CPU      0.00s WALL (       1 calls)
     wfcinit:atom :      0.02s CPU      0.02s WALL (      23 calls)
     wfcinit:wfcr :      1.08s CPU      1.09s WALL (      23 calls)
     potinit      :      0.16s CPU      0.17s WALL (       1 calls)
     hinit0       :      1.12s CPU      1.12s WALL (       1 calls)

     Called by electrons:
     c_bands      :    159.32s CPU    161.13s WALL (       1 calls)
     v_of_rho     :      0.11s CPU      0.11s WALL (       1 calls)
     v_h          :      0.00s CPU      0.00s WALL (       1 calls)
     v_xc         :      0.10s CPU      0.11s WALL (       1 calls)
     newd         :      0.08s CPU      0.08s WALL (       1 calls)

     Called by c_bands:
     init_us_2    :      0.02s CPU      0.03s WALL (      23 calls)
     ccgdiagg     :    150.43s CPU    152.18s WALL (     138 calls)
     wfcrot       :      6.81s CPU      6.85s WALL (     138 calls)

     Called by sum_band:

     Called by *cgdiagg:
     h_psi        :    118.97s CPU    120.26s WALL (   87800 calls)
     s_psi        :      8.31s CPU      8.46s WALL (  175462 calls)

     Called by h_psi:
     h_psi:calbec :     14.48s CPU     14.56s WALL (   87800 calls)
     vloc_psi     :     90.45s CPU     91.56s WALL (   87800 calls)
     add_vuspsi   :     13.21s CPU     13.35s WALL (   87800 calls)
     hs_1psi      :    118.00s CPU    119.26s WALL (   87662 calls)
     s_1psi       :      8.09s CPU      8.18s WALL (   87662 calls)

     General routines
     calbec       :     17.93s CPU     18.17s WALL (  175462 calls)
     fft          :      0.13s CPU      0.13s WALL (      13 calls)
     ffts         :      0.04s CPU      0.04s WALL (       1 calls)
     fftw         :     61.70s CPU     62.36s WALL (  189124 calls)
     interpolate  :      0.05s CPU      0.05s WALL (       1 calls)
     davcio       :      0.01s CPU      0.03s WALL (      46 calls)

     Parallel routines

     PWSCF        :   2m41.03s CPU   2m43.66s WALL


   This run was terminated on:  20:35:14  26Mar2024            

=------------------------------------------------------------------------------=
   JOB DONE.
=------------------------------------------------------------------------------=
