
     Program PWSCF v.7.3.1 starts on 26Mar2024 at 20:40:17 

     This program is part of the open-source Quantum ESPRESSO suite
     for quantum simulation of materials; please cite
         "P. Giannozzi et al., J. Phys.:Condens. Matter 21 395502 (2009);
         "P. Giannozzi et al., J. Phys.:Condens. Matter 29 465901 (2017);
         "P. Giannozzi et al., J. Chem. Phys. 152 154105 (2020);
          URL http://www.quantum-espresso.org", 
     in publications or presentations arising from this work. More details at
     http://www.quantum-espresso.org/quote

     Parallel version (MPI & OpenMP), running on      16 processor cores
     Number of MPI processes:                16
     Threads/MPI process:                     1

     MPI processes distributed on     2 nodes
     22665 MiB available memory on the printing compute node when the environment starts

     Reading input from nscf.pwi

     Current dimensions of program PWSCF are:
     Max number of different atomic species (ntypx) = 10
     Max number of k-points (npk) =  40000
     Max angular momentum in pseudopotentials (lmaxx) =  4
     file Zn.pbesol-spn-rrkjus_gipaw.1.0.0.UPF: wavefunction(s)  3P renormalized

     Atomic positions and unit cell read from directory:
     ./TMP/zno.save/


     K-points division:     npool     =       4
     R & G space division:  proc/nbgrp/npool/nimage =       4
     Subspace diagonalization in iterative solution of the eigenvalue problem:
     a serial algorithm will be used


     Parallelization info
     --------------------
     sticks:   dense  smooth     PW     G-vecs:    dense   smooth      PW
     Min         382     153     49                19836     5019     919
     Max         383     154     50                19845     5020     926
     Sum        1531     613    199                79367    20077    3693

     Using Slab Decomposition



     bravais-lattice index     =            4
     lattice parameter (alat)  =       6.1177  a.u.
     unit-cell volume          =     319.8518 (a.u.)^3
     number of atoms/cell      =            4
     number of atomic types    =            2
     number of electrons       =        52.00
     number of Kohn-Sham states=           50
     kinetic-energy cutoff     =      60.0000  Ry
     charge density cutoff     =     600.0000  Ry
     Exchange-correlation= PBESOL
                           (   1   4  10   8   0   0   0)

     celldm(1)=   6.117707  celldm(2)=   0.000000  celldm(3)=   1.613066
     celldm(4)=   0.000000  celldm(5)=   0.000000  celldm(6)=   0.000000

     crystal axes: (cart. coord. in units of alat)
               a(1) = (   1.000000   0.000000   0.000000 )  
               a(2) = (  -0.500000   0.866025   0.000000 )  
               a(3) = (   0.000000   0.000000   1.613066 )  

     reciprocal axes: (cart. coord. in units 2 pi/alat)
               b(1) = (  1.000000  0.577350 -0.000000 )  
               b(2) = (  0.000000  1.154701  0.000000 )  
               b(3) = (  0.000000 -0.000000  0.619937 )  


     PseudoPot. # 1 for Zn read from file:
     /work4/dls/shared/pslibrary_pbesol/Zn.pbesol-spn-rrkjus_gipaw.1.0.0.UPF
     MD5 check sum: b4e9e16921b23c2f86f37449a7d7d891
     Pseudo is Ultrasoft + core correction, Zval = 20.0
     Generated using 'atomic' code by A. Dal Corso  v.7.0
     Using radial grid of 1201 points,  6 beta functions with: 
                l(1) =   0
                l(2) =   0
                l(3) =   1
                l(4) =   1
                l(5) =   2
                l(6) =   2
     Q(r) pseudized with 0 coefficients 


     PseudoPot. # 2 for O  read from file:
     /work4/dls/shared/pslibrary_pbesol/O.pbesol-n-rrkjus_gipaw.1.0.0.UPF
     MD5 check sum: 2ea9f908f11928dd1b1a171180989522
     Pseudo is Ultrasoft + core correction, Zval =  6.0
     Generated using 'atomic' code by A. Dal Corso  v.7.0
     Using radial grid of 1095 points,  4 beta functions with: 
                l(1) =   0
                l(2) =   0
                l(3) =   1
                l(4) =   1
     Q(r) pseudized with 0 coefficients 


     atomic species   valence    mass     pseudopotential
     Zn               20.00    65.38000     Zn( 1.00)
     O                 6.00    15.99900     O ( 1.00)

     12 Sym. Ops. (no inversion) found ( 6 have fractional translation)


                                    s                        frac. trans.

      isym =  1     identity                                     

 cryst.   s( 1) = (     1          0          0      )
                  (     0          1          0      )
                  (     0          0          1      )

 cart.    s( 1) = (  1.0000000  0.0000000  0.0000000 )
                  (  0.0000000  1.0000000  0.0000000 )
                  (  0.0000000  0.0000000  1.0000000 )


      isym =  2     180 deg rotation - cart. axis [0,0,1]        

 cryst.   s( 2) = (    -1          0          0      )    f =(  0.0000000 )
                  (     0         -1          0      )       (  0.0000000 )
                  (     0          0          1      )       ( -0.5000000 )

 cart.    s( 2) = ( -1.0000000 -0.0000000  0.0000000 )    f =(  0.0000000 )
                  (  0.0000000 -1.0000000  0.0000000 )       (  0.0000000 )
                  (  0.0000000  0.0000000  1.0000000 )       ( -0.8065331 )


      isym =  3      60 deg rotation - cryst. axis [0,0,1]       

 cryst.   s( 3) = (     1          1          0      )    f =(  0.0000000 )
                  (    -1          0          0      )       ( -0.0000000 )
                  (     0          0          1      )       ( -0.5000000 )

 cart.    s( 3) = (  0.5000000 -0.8660254  0.0000000 )    f =(  0.0000000 )
                  (  0.8660254  0.5000000  0.0000000 )       ( -0.0000000 )
                  (  0.0000000  0.0000000  1.0000000 )       ( -0.8065331 )


      isym =  4      60 deg rotation - cryst. axis [0,0,-1]      

 cryst.   s( 4) = (     0         -1          0      )    f =(  0.0000000 )
                  (     1          1          0      )       (  0.0000000 )
                  (     0          0          1      )       ( -0.5000000 )

 cart.    s( 4) = (  0.5000000  0.8660254  0.0000000 )    f =(  0.0000000 )
                  ( -0.8660254  0.5000000  0.0000000 )       (  0.0000000 )
                  (  0.0000000  0.0000000  1.0000000 )       ( -0.8065331 )


      isym =  5     120 deg rotation - cryst. axis [0,0,1]       

 cryst.   s( 5) = (     0          1          0      )
                  (    -1         -1          0      )
                  (     0          0          1      )

 cart.    s( 5) = ( -0.5000000 -0.8660254  0.0000000 )
                  (  0.8660254 -0.5000000  0.0000000 )
                  (  0.0000000  0.0000000  1.0000000 )


      isym =  6     120 deg rotation - cryst. axis [0,0,-1]      

 cryst.   s( 6) = (    -1         -1          0      )
                  (     1          0          0      )
                  (     0          0          1      )

 cart.    s( 6) = ( -0.5000000  0.8660254  0.0000000 )
                  ( -0.8660254 -0.5000000  0.0000000 )
                  (  0.0000000  0.0000000  1.0000000 )


      isym =  7     inv. 180 deg rotation - cart. axis [0,1,0]   

 cryst.   s( 7) = (     1          0          0      )    f =(  0.0000000 )
                  (    -1         -1          0      )       (  0.0000000 )
                  (     0          0          1      )       ( -0.5000000 )

 cart.    s( 7) = (  1.0000000 -0.0000000  0.0000000 )    f =(  0.0000000 )
                  (  0.0000000 -1.0000000  0.0000000 )       (  0.0000000 )
                  (  0.0000000  0.0000000  1.0000000 )       ( -0.8065331 )


      isym =  8     inv. 180 deg rotation - cart. axis [1,0,0]   

 cryst.   s( 8) = (    -1          0          0      )
                  (     1          1          0      )
                  (     0          0          1      )

 cart.    s( 8) = ( -1.0000000  0.0000000  0.0000000 )
                  (  0.0000000  1.0000000  0.0000000 )
                  (  0.0000000  0.0000000  1.0000000 )


      isym =  9     inv. 180 deg rotation - cryst. axis [1,-1,0] 

 cryst.   s( 9) = (     0          1          0      )    f =(  0.0000000 )
                  (     1          0          0      )       ( -0.0000000 )
                  (     0          0          1      )       ( -0.5000000 )

 cart.    s( 9) = ( -0.5000000  0.8660254  0.0000000 )    f =(  0.0000000 )
                  (  0.8660254  0.5000000  0.0000000 )       ( -0.0000000 )
                  (  0.0000000  0.0000000  1.0000000 )       ( -0.8065331 )


      isym = 10     inv. 180 deg rotation - cryst. axis [2,1,0]  

 cryst.   s(10) = (    -1         -1          0      )    f =(  0.0000000 )
                  (     0          1          0      )       (  0.0000000 )
                  (     0          0          1      )       ( -0.5000000 )

 cart.    s(10) = ( -0.5000000 -0.8660254  0.0000000 )    f =(  0.0000000 )
                  ( -0.8660254  0.5000000  0.0000000 )       (  0.0000000 )
                  (  0.0000000  0.0000000  1.0000000 )       ( -0.8065331 )


      isym = 11     inv. 180 deg rotation - cryst. axis [0,1,0]  

 cryst.   s(11) = (     1          1          0      )
                  (     0         -1          0      )
                  (     0          0          1      )

 cart.    s(11) = (  0.5000000  0.8660254  0.0000000 )
                  (  0.8660254 -0.5000000  0.0000000 )
                  (  0.0000000  0.0000000  1.0000000 )


      isym = 12     inv. 180 deg rotation - cryst. axis [1,1,0]  

 cryst.   s(12) = (     0         -1          0      )
                  (    -1          0          0      )
                  (     0          0          1      )

 cart.    s(12) = (  0.5000000 -0.8660254  0.0000000 )
                  ( -0.8660254 -0.5000000  0.0000000 )
                  (  0.0000000  0.0000000  1.0000000 )


     point group C_6v (6mm) 
     there are  6 classes
     the character table:

       E     2C6   2C3   C2    3s_v  3s_d 
A_1    1.00  1.00  1.00  1.00  1.00  1.00
A_2    1.00  1.00  1.00  1.00 -1.00 -1.00
B_1    1.00 -1.00  1.00 -1.00  1.00 -1.00
B_2    1.00 -1.00  1.00 -1.00 -1.00  1.00
E_1    2.00  1.00 -1.00 -2.00  0.00  0.00
E_2    2.00 -1.00 -1.00  2.00  0.00  0.00

     the symmetry operations in each class and the name of the first element:

     E        1
          identity                                               
     2C6      3    4
           60 deg rotation - cryst. axis [0,0,1]                 
     2C3      5    6
          120 deg rotation - cryst. axis [0,0,1]                 
     C2       2
          180 deg rotation - cart. axis [0,0,1]                  
     3s_v     8   12   11
          inv. 180 deg rotation - cart. axis [1,0,0]             
     3s_d     7    9   10
          inv. 180 deg rotation - cart. axis [0,1,0]             

   Cartesian axes

     site n.     atom                  positions (alat units)
         1        Zn     tau(   1) = (  -0.0000000   0.5773503   0.0009545  )
         2        Zn     tau(   2) = (   0.5000000   0.2886751   0.8074875  )
         3        O      tau(   3) = (  -0.0000000   0.5773503   0.6125107  )
         4        O      tau(   4) = (   0.5000000   0.2886751   1.4190438  )

   Crystallographic axes

     site n.     atom                  positions (cryst. coord.)
         1        Zn     tau(   1) = (  0.3333333  0.6666667  0.0005917  )
         2        Zn     tau(   2) = (  0.6666667  0.3333333  0.5005917  )
         3        O      tau(   3) = (  0.3333333  0.6666667  0.3797183  )
         4        O      tau(   4) = (  0.6666667  0.3333333  0.8797183  )

     number of k points=   192
                       cart. coord. in units 2pi/alat
        k(    1) = (   0.0333333   0.0577350   0.0516614), wk =   0.0059259
        k(    2) = (   0.0333333   0.0577350   0.1549843), wk =   0.0059259
        k(    3) = (   0.0333333   0.0577350   0.2583072), wk =   0.0059259
        k(    4) = (   0.0333333   0.1347151   0.0516614), wk =   0.0118519
        k(    5) = (   0.0333333   0.1347151   0.1549843), wk =   0.0118519
        k(    6) = (   0.0333333   0.1347151   0.2583072), wk =   0.0118519
        k(    7) = (   0.0333333   0.2116951   0.0516614), wk =   0.0118519
        k(    8) = (   0.0333333   0.2116951   0.1549843), wk =   0.0118519
        k(    9) = (   0.0333333   0.2116951   0.2583072), wk =   0.0118519
        k(   10) = (   0.0333333   0.2886751   0.0516614), wk =   0.0118519
        k(   11) = (   0.0333333   0.2886751   0.1549843), wk =   0.0118519
        k(   12) = (   0.0333333   0.2886751   0.2583072), wk =   0.0118519
        k(   13) = (   0.0333333   0.3656552   0.0516614), wk =   0.0118519
        k(   14) = (   0.0333333   0.3656552   0.1549843), wk =   0.0118519
        k(   15) = (   0.0333333   0.3656552   0.2583072), wk =   0.0118519
        k(   16) = (   0.0333333   0.4426352   0.0516614), wk =   0.0118519
        k(   17) = (   0.0333333   0.4426352   0.1549843), wk =   0.0118519
        k(   18) = (   0.0333333   0.4426352   0.2583072), wk =   0.0118519
        k(   19) = (   0.0333333   0.5196152   0.0516614), wk =   0.0118519
        k(   20) = (   0.0333333   0.5196152   0.1549843), wk =   0.0118519
        k(   21) = (   0.0333333   0.5196152   0.2583072), wk =   0.0118519
        k(   22) = (   0.0333333  -0.5581053   0.0516614), wk =   0.0118519
        k(   23) = (   0.0333333  -0.5581053   0.1549843), wk =   0.0118519
        k(   24) = (   0.0333333  -0.5581053   0.2583072), wk =   0.0118519
        k(   25) = (   0.0333333  -0.4811252   0.0516614), wk =   0.0118519
        k(   26) = (   0.0333333  -0.4811252   0.1549843), wk =   0.0118519
        k(   27) = (   0.0333333  -0.4811252   0.2583072), wk =   0.0118519
        k(   28) = (   0.0333333  -0.4041452   0.0516614), wk =   0.0118519
        k(   29) = (   0.0333333  -0.4041452   0.1549843), wk =   0.0118519
        k(   30) = (   0.0333333  -0.4041452   0.2583072), wk =   0.0118519
        k(   31) = (   0.0333333  -0.3271652   0.0516614), wk =   0.0118519
        k(   32) = (   0.0333333  -0.3271652   0.1549843), wk =   0.0118519
        k(   33) = (   0.0333333  -0.3271652   0.2583072), wk =   0.0118519
        k(   34) = (   0.0333333  -0.2501851   0.0516614), wk =   0.0118519
        k(   35) = (   0.0333333  -0.2501851   0.1549843), wk =   0.0118519
        k(   36) = (   0.0333333  -0.2501851   0.2583072), wk =   0.0118519
        k(   37) = (   0.0333333  -0.1732051   0.0516614), wk =   0.0118519
        k(   38) = (   0.0333333  -0.1732051   0.1549843), wk =   0.0118519
        k(   39) = (   0.0333333  -0.1732051   0.2583072), wk =   0.0118519
        k(   40) = (   0.0333333  -0.0962250   0.0516614), wk =   0.0118519
        k(   41) = (   0.0333333  -0.0962250   0.1549843), wk =   0.0118519
        k(   42) = (   0.0333333  -0.0962250   0.2583072), wk =   0.0118519
        k(   43) = (   0.0333333  -0.0192450   0.0516614), wk =   0.0059259
        k(   44) = (   0.0333333  -0.0192450   0.1549843), wk =   0.0059259
        k(   45) = (   0.0333333  -0.0192450   0.2583072), wk =   0.0059259
        k(   46) = (   0.1000000   0.1732051   0.0516614), wk =   0.0059259
        k(   47) = (   0.1000000   0.1732051   0.1549843), wk =   0.0059259
        k(   48) = (   0.1000000   0.1732051   0.2583072), wk =   0.0059259
        k(   49) = (   0.1000000   0.2501851   0.0516614), wk =   0.0118519
        k(   50) = (   0.1000000   0.2501851   0.1549843), wk =   0.0118519
        k(   51) = (   0.1000000   0.2501851   0.2583072), wk =   0.0118519
        k(   52) = (   0.1000000   0.3271652   0.0516614), wk =   0.0118519
        k(   53) = (   0.1000000   0.3271652   0.1549843), wk =   0.0118519
        k(   54) = (   0.1000000   0.3271652   0.2583072), wk =   0.0118519
        k(   55) = (   0.1000000   0.4041452   0.0516614), wk =   0.0118519
        k(   56) = (   0.1000000   0.4041452   0.1549843), wk =   0.0118519
        k(   57) = (   0.1000000   0.4041452   0.2583072), wk =   0.0118519
        k(   58) = (   0.1000000   0.4811252   0.0516614), wk =   0.0118519
        k(   59) = (   0.1000000   0.4811252   0.1549843), wk =   0.0118519
        k(   60) = (   0.1000000   0.4811252   0.2583072), wk =   0.0118519
        k(   61) = (   0.1000000   0.5581053   0.0516614), wk =   0.0118519
        k(   62) = (   0.1000000   0.5581053   0.1549843), wk =   0.0118519
        k(   63) = (   0.1000000   0.5581053   0.2583072), wk =   0.0118519
        k(   64) = (   0.1000000  -0.5196152   0.0516614), wk =   0.0118519
        k(   65) = (   0.1000000  -0.5196152   0.1549843), wk =   0.0118519
        k(   66) = (   0.1000000  -0.5196152   0.2583072), wk =   0.0118519
        k(   67) = (   0.1000000  -0.4426352   0.0516614), wk =   0.0118519
        k(   68) = (   0.1000000  -0.4426352   0.1549843), wk =   0.0118519
        k(   69) = (   0.1000000  -0.4426352   0.2583072), wk =   0.0118519
        k(   70) = (   0.1000000  -0.3656552   0.0516614), wk =   0.0118519
        k(   71) = (   0.1000000  -0.3656552   0.1549843), wk =   0.0118519
        k(   72) = (   0.1000000  -0.3656552   0.2583072), wk =   0.0118519
        k(   73) = (   0.1000000  -0.2886751   0.0516614), wk =   0.0118519
        k(   74) = (   0.1000000  -0.2886751   0.1549843), wk =   0.0118519
        k(   75) = (   0.1000000  -0.2886751   0.2583072), wk =   0.0118519
        k(   76) = (   0.1000000  -0.2116951   0.0516614), wk =   0.0118519
        k(   77) = (   0.1000000  -0.2116951   0.1549843), wk =   0.0118519
        k(   78) = (   0.1000000  -0.2116951   0.2583072), wk =   0.0118519
        k(   79) = (   0.1000000  -0.1347151   0.0516614), wk =   0.0118519
        k(   80) = (   0.1000000  -0.1347151   0.1549843), wk =   0.0118519
        k(   81) = (   0.1000000  -0.1347151   0.2583072), wk =   0.0118519
        k(   82) = (   0.1000000  -0.0577350   0.0516614), wk =   0.0059259
        k(   83) = (   0.1000000  -0.0577350   0.1549843), wk =   0.0059259
        k(   84) = (   0.1000000  -0.0577350   0.2583072), wk =   0.0059259
        k(   85) = (   0.1666667   0.2886751   0.0516614), wk =   0.0059259
        k(   86) = (   0.1666667   0.2886751   0.1549843), wk =   0.0059259
        k(   87) = (   0.1666667   0.2886751   0.2583072), wk =   0.0059259
        k(   88) = (   0.1666667   0.3656552   0.0516614), wk =   0.0118519
        k(   89) = (   0.1666667   0.3656552   0.1549843), wk =   0.0118519
        k(   90) = (   0.1666667   0.3656552   0.2583072), wk =   0.0118519
        k(   91) = (   0.1666667   0.4426352   0.0516614), wk =   0.0118519
        k(   92) = (   0.1666667   0.4426352   0.1549843), wk =   0.0118519
        k(   93) = (   0.1666667   0.4426352   0.2583072), wk =   0.0118519
        k(   94) = (   0.1666667   0.5196152   0.0516614), wk =   0.0118519
        k(   95) = (   0.1666667   0.5196152   0.1549843), wk =   0.0118519
        k(   96) = (   0.1666667   0.5196152   0.2583072), wk =   0.0118519
        k(   97) = (   0.1666667   0.5965953   0.0516614), wk =   0.0118519
        k(   98) = (   0.1666667   0.5965953   0.1549843), wk =   0.0118519
        k(   99) = (   0.1666667   0.5965953   0.2583072), wk =   0.0118519
        k(  100) = (   0.1666667  -0.4811252   0.0516614), wk =   0.0118519
        k(  101) = (   0.1666667  -0.4811252   0.1549843), wk =   0.0118519
        k(  102) = (   0.1666667  -0.4811252   0.2583072), wk =   0.0118519
        k(  103) = (   0.1666667  -0.4041452   0.0516614), wk =   0.0118519
        k(  104) = (   0.1666667  -0.4041452   0.1549843), wk =   0.0118519
        k(  105) = (   0.1666667  -0.4041452   0.2583072), wk =   0.0118519
        k(  106) = (   0.1666667  -0.3271652   0.0516614), wk =   0.0118519
        k(  107) = (   0.1666667  -0.3271652   0.1549843), wk =   0.0118519
        k(  108) = (   0.1666667  -0.3271652   0.2583072), wk =   0.0118519
        k(  109) = (   0.1666667  -0.2501851   0.0516614), wk =   0.0118519
        k(  110) = (   0.1666667  -0.2501851   0.1549843), wk =   0.0118519
        k(  111) = (   0.1666667  -0.2501851   0.2583072), wk =   0.0118519
        k(  112) = (   0.1666667  -0.1732051   0.0516614), wk =   0.0118519
        k(  113) = (   0.1666667  -0.1732051   0.1549843), wk =   0.0118519
        k(  114) = (   0.1666667  -0.1732051   0.2583072), wk =   0.0118519
        k(  115) = (   0.1666667  -0.0962250   0.0516614), wk =   0.0059259
        k(  116) = (   0.1666667  -0.0962250   0.1549843), wk =   0.0059259
        k(  117) = (   0.1666667  -0.0962250   0.2583072), wk =   0.0059259
        k(  118) = (   0.2333333   0.4041452   0.0516614), wk =   0.0059259
        k(  119) = (   0.2333333   0.4041452   0.1549843), wk =   0.0059259
        k(  120) = (   0.2333333   0.4041452   0.2583072), wk =   0.0059259
        k(  121) = (   0.2333333   0.4811252   0.0516614), wk =   0.0118519
        k(  122) = (   0.2333333   0.4811252   0.1549843), wk =   0.0118519
        k(  123) = (   0.2333333   0.4811252   0.2583072), wk =   0.0118519
        k(  124) = (   0.2333333   0.5581053   0.0516614), wk =   0.0118519
        k(  125) = (   0.2333333   0.5581053   0.1549843), wk =   0.0118519
        k(  126) = (   0.2333333   0.5581053   0.2583072), wk =   0.0118519
        k(  127) = (   0.2333333   0.6350853   0.0516614), wk =   0.0118519
        k(  128) = (   0.2333333   0.6350853   0.1549843), wk =   0.0118519
        k(  129) = (   0.2333333   0.6350853   0.2583072), wk =   0.0118519
        k(  130) = (   0.2333333  -0.4426352   0.0516614), wk =   0.0118519
        k(  131) = (   0.2333333  -0.4426352   0.1549843), wk =   0.0118519
        k(  132) = (   0.2333333  -0.4426352   0.2583072), wk =   0.0118519
        k(  133) = (   0.2333333  -0.3656552   0.0516614), wk =   0.0118519
        k(  134) = (   0.2333333  -0.3656552   0.1549843), wk =   0.0118519
        k(  135) = (   0.2333333  -0.3656552   0.2583072), wk =   0.0118519
        k(  136) = (   0.2333333  -0.2886751   0.0516614), wk =   0.0118519
        k(  137) = (   0.2333333  -0.2886751   0.1549843), wk =   0.0118519
        k(  138) = (   0.2333333  -0.2886751   0.2583072), wk =   0.0118519
        k(  139) = (   0.2333333  -0.2116951   0.0516614), wk =   0.0118519
        k(  140) = (   0.2333333  -0.2116951   0.1549843), wk =   0.0118519
        k(  141) = (   0.2333333  -0.2116951   0.2583072), wk =   0.0118519
        k(  142) = (   0.2333333  -0.1347151   0.0516614), wk =   0.0059259
        k(  143) = (   0.2333333  -0.1347151   0.1549843), wk =   0.0059259
        k(  144) = (   0.2333333  -0.1347151   0.2583072), wk =   0.0059259
        k(  145) = (   0.3000000   0.5196152   0.0516614), wk =   0.0059259
        k(  146) = (   0.3000000   0.5196152   0.1549843), wk =   0.0059259
        k(  147) = (   0.3000000   0.5196152   0.2583072), wk =   0.0059259
        k(  148) = (   0.3000000   0.5965953   0.0516614), wk =   0.0118519
        k(  149) = (   0.3000000   0.5965953   0.1549843), wk =   0.0118519
        k(  150) = (   0.3000000   0.5965953   0.2583072), wk =   0.0118519
        k(  151) = (   0.3000000   0.6735753   0.0516614), wk =   0.0118519
        k(  152) = (   0.3000000   0.6735753   0.1549843), wk =   0.0118519
        k(  153) = (   0.3000000   0.6735753   0.2583072), wk =   0.0118519
        k(  154) = (   0.3000000  -0.4041452   0.0516614), wk =   0.0118519
        k(  155) = (   0.3000000  -0.4041452   0.1549843), wk =   0.0118519
        k(  156) = (   0.3000000  -0.4041452   0.2583072), wk =   0.0118519
        k(  157) = (   0.3000000  -0.3271652   0.0516614), wk =   0.0118519
        k(  158) = (   0.3000000  -0.3271652   0.1549843), wk =   0.0118519
        k(  159) = (   0.3000000  -0.3271652   0.2583072), wk =   0.0118519
        k(  160) = (   0.3000000  -0.2501851   0.0516614), wk =   0.0118519
        k(  161) = (   0.3000000  -0.2501851   0.1549843), wk =   0.0118519
        k(  162) = (   0.3000000  -0.2501851   0.2583072), wk =   0.0118519
        k(  163) = (   0.3000000  -0.1732051   0.0516614), wk =   0.0059259
        k(  164) = (   0.3000000  -0.1732051   0.1549843), wk =   0.0059259
        k(  165) = (   0.3000000  -0.1732051   0.2583072), wk =   0.0059259
        k(  166) = (   0.3666667   0.6350853   0.0516614), wk =   0.0059259
        k(  167) = (   0.3666667   0.6350853   0.1549843), wk =   0.0059259
        k(  168) = (   0.3666667   0.6350853   0.2583072), wk =   0.0059259
        k(  169) = (   0.3666667   0.7120653   0.0516614), wk =   0.0118519
        k(  170) = (   0.3666667   0.7120653   0.1549843), wk =   0.0118519
        k(  171) = (   0.3666667   0.7120653   0.2583072), wk =   0.0118519
        k(  172) = (   0.3666667  -0.3656552   0.0516614), wk =   0.0118519
        k(  173) = (   0.3666667  -0.3656552   0.1549843), wk =   0.0118519
        k(  174) = (   0.3666667  -0.3656552   0.2583072), wk =   0.0118519
        k(  175) = (   0.3666667  -0.2886751   0.0516614), wk =   0.0118519
        k(  176) = (   0.3666667  -0.2886751   0.1549843), wk =   0.0118519
        k(  177) = (   0.3666667  -0.2886751   0.2583072), wk =   0.0118519
        k(  178) = (   0.3666667  -0.2116951   0.0516614), wk =   0.0059259
        k(  179) = (   0.3666667  -0.2116951   0.1549843), wk =   0.0059259
        k(  180) = (   0.3666667  -0.2116951   0.2583072), wk =   0.0059259
        k(  181) = (   0.4333333   0.7505553   0.0516614), wk =   0.0059259
        k(  182) = (   0.4333333   0.7505553   0.1549843), wk =   0.0059259
        k(  183) = (   0.4333333   0.7505553   0.2583072), wk =   0.0059259
        k(  184) = (   0.4333333  -0.3271652   0.0516614), wk =   0.0118519
        k(  185) = (   0.4333333  -0.3271652   0.1549843), wk =   0.0118519
        k(  186) = (   0.4333333  -0.3271652   0.2583072), wk =   0.0118519
        k(  187) = (   0.4333333  -0.2501851   0.0516614), wk =   0.0059259
        k(  188) = (   0.4333333  -0.2501851   0.1549843), wk =   0.0059259
        k(  189) = (   0.4333333  -0.2501851   0.2583072), wk =   0.0059259
        k(  190) = (  -0.5000000  -0.8660254   0.0516614), wk =   0.0029630
        k(  191) = (  -0.5000000  -0.8660254   0.1549843), wk =   0.0029630
        k(  192) = (  -0.5000000  -0.8660254   0.2583072), wk =   0.0029630

                       cryst. coord.
        k(    1) = (   0.0333333   0.0333333   0.0833333), wk =   0.0059259
        k(    2) = (   0.0333333   0.0333333   0.2500000), wk =   0.0059259
        k(    3) = (   0.0333333   0.0333333   0.4166667), wk =   0.0059259
        k(    4) = (   0.0333333   0.1000000   0.0833333), wk =   0.0118519
        k(    5) = (   0.0333333   0.1000000   0.2500000), wk =   0.0118519
        k(    6) = (   0.0333333   0.1000000   0.4166667), wk =   0.0118519
        k(    7) = (   0.0333333   0.1666667   0.0833333), wk =   0.0118519
        k(    8) = (   0.0333333   0.1666667   0.2500000), wk =   0.0118519
        k(    9) = (   0.0333333   0.1666667   0.4166667), wk =   0.0118519
        k(   10) = (   0.0333333   0.2333333   0.0833333), wk =   0.0118519
        k(   11) = (   0.0333333   0.2333333   0.2500000), wk =   0.0118519
        k(   12) = (   0.0333333   0.2333333   0.4166667), wk =   0.0118519
        k(   13) = (   0.0333333   0.3000000   0.0833333), wk =   0.0118519
        k(   14) = (   0.0333333   0.3000000   0.2500000), wk =   0.0118519
        k(   15) = (   0.0333333   0.3000000   0.4166667), wk =   0.0118519
        k(   16) = (   0.0333333   0.3666667   0.0833333), wk =   0.0118519
        k(   17) = (   0.0333333   0.3666667   0.2500000), wk =   0.0118519
        k(   18) = (   0.0333333   0.3666667   0.4166667), wk =   0.0118519
        k(   19) = (   0.0333333   0.4333333   0.0833333), wk =   0.0118519
        k(   20) = (   0.0333333   0.4333333   0.2500000), wk =   0.0118519
        k(   21) = (   0.0333333   0.4333333   0.4166667), wk =   0.0118519
        k(   22) = (   0.0333333  -0.5000000   0.0833333), wk =   0.0118519
        k(   23) = (   0.0333333  -0.5000000   0.2500000), wk =   0.0118519
        k(   24) = (   0.0333333  -0.5000000   0.4166667), wk =   0.0118519
        k(   25) = (   0.0333333  -0.4333333   0.0833333), wk =   0.0118519
        k(   26) = (   0.0333333  -0.4333333   0.2500000), wk =   0.0118519
        k(   27) = (   0.0333333  -0.4333333   0.4166667), wk =   0.0118519
        k(   28) = (   0.0333333  -0.3666667   0.0833333), wk =   0.0118519
        k(   29) = (   0.0333333  -0.3666667   0.2500000), wk =   0.0118519
        k(   30) = (   0.0333333  -0.3666667   0.4166667), wk =   0.0118519
        k(   31) = (   0.0333333  -0.3000000   0.0833333), wk =   0.0118519
        k(   32) = (   0.0333333  -0.3000000   0.2500000), wk =   0.0118519
        k(   33) = (   0.0333333  -0.3000000   0.4166667), wk =   0.0118519
        k(   34) = (   0.0333333  -0.2333333   0.0833333), wk =   0.0118519
        k(   35) = (   0.0333333  -0.2333333   0.2500000), wk =   0.0118519
        k(   36) = (   0.0333333  -0.2333333   0.4166667), wk =   0.0118519
        k(   37) = (   0.0333333  -0.1666667   0.0833333), wk =   0.0118519
        k(   38) = (   0.0333333  -0.1666667   0.2500000), wk =   0.0118519
        k(   39) = (   0.0333333  -0.1666667   0.4166667), wk =   0.0118519
        k(   40) = (   0.0333333  -0.1000000   0.0833333), wk =   0.0118519
        k(   41) = (   0.0333333  -0.1000000   0.2500000), wk =   0.0118519
        k(   42) = (   0.0333333  -0.1000000   0.4166667), wk =   0.0118519
        k(   43) = (   0.0333333  -0.0333333   0.0833333), wk =   0.0059259
        k(   44) = (   0.0333333  -0.0333333   0.2500000), wk =   0.0059259
        k(   45) = (   0.0333333  -0.0333333   0.4166667), wk =   0.0059259
        k(   46) = (   0.1000000   0.1000000   0.0833333), wk =   0.0059259
        k(   47) = (   0.1000000   0.1000000   0.2500000), wk =   0.0059259
        k(   48) = (   0.1000000   0.1000000   0.4166667), wk =   0.0059259
        k(   49) = (   0.1000000   0.1666667   0.0833333), wk =   0.0118519
        k(   50) = (   0.1000000   0.1666667   0.2500000), wk =   0.0118519
        k(   51) = (   0.1000000   0.1666667   0.4166667), wk =   0.0118519
        k(   52) = (   0.1000000   0.2333333   0.0833333), wk =   0.0118519
        k(   53) = (   0.1000000   0.2333333   0.2500000), wk =   0.0118519
        k(   54) = (   0.1000000   0.2333333   0.4166667), wk =   0.0118519
        k(   55) = (   0.1000000   0.3000000   0.0833333), wk =   0.0118519
        k(   56) = (   0.1000000   0.3000000   0.2500000), wk =   0.0118519
        k(   57) = (   0.1000000   0.3000000   0.4166667), wk =   0.0118519
        k(   58) = (   0.1000000   0.3666667   0.0833333), wk =   0.0118519
        k(   59) = (   0.1000000   0.3666667   0.2500000), wk =   0.0118519
        k(   60) = (   0.1000000   0.3666667   0.4166667), wk =   0.0118519
        k(   61) = (   0.1000000   0.4333333   0.0833333), wk =   0.0118519
        k(   62) = (   0.1000000   0.4333333   0.2500000), wk =   0.0118519
        k(   63) = (   0.1000000   0.4333333   0.4166667), wk =   0.0118519
        k(   64) = (   0.1000000  -0.5000000   0.0833333), wk =   0.0118519
        k(   65) = (   0.1000000  -0.5000000   0.2500000), wk =   0.0118519
        k(   66) = (   0.1000000  -0.5000000   0.4166667), wk =   0.0118519
        k(   67) = (   0.1000000  -0.4333333   0.0833333), wk =   0.0118519
        k(   68) = (   0.1000000  -0.4333333   0.2500000), wk =   0.0118519
        k(   69) = (   0.1000000  -0.4333333   0.4166667), wk =   0.0118519
        k(   70) = (   0.1000000  -0.3666667   0.0833333), wk =   0.0118519
        k(   71) = (   0.1000000  -0.3666667   0.2500000), wk =   0.0118519
        k(   72) = (   0.1000000  -0.3666667   0.4166667), wk =   0.0118519
        k(   73) = (   0.1000000  -0.3000000   0.0833333), wk =   0.0118519
        k(   74) = (   0.1000000  -0.3000000   0.2500000), wk =   0.0118519
        k(   75) = (   0.1000000  -0.3000000   0.4166667), wk =   0.0118519
        k(   76) = (   0.1000000  -0.2333333   0.0833333), wk =   0.0118519
        k(   77) = (   0.1000000  -0.2333333   0.2500000), wk =   0.0118519
        k(   78) = (   0.1000000  -0.2333333   0.4166667), wk =   0.0118519
        k(   79) = (   0.1000000  -0.1666667   0.0833333), wk =   0.0118519
        k(   80) = (   0.1000000  -0.1666667   0.2500000), wk =   0.0118519
        k(   81) = (   0.1000000  -0.1666667   0.4166667), wk =   0.0118519
        k(   82) = (   0.1000000  -0.1000000   0.0833333), wk =   0.0059259
        k(   83) = (   0.1000000  -0.1000000   0.2500000), wk =   0.0059259
        k(   84) = (   0.1000000  -0.1000000   0.4166667), wk =   0.0059259
        k(   85) = (   0.1666667   0.1666667   0.0833333), wk =   0.0059259
        k(   86) = (   0.1666667   0.1666667   0.2500000), wk =   0.0059259
        k(   87) = (   0.1666667   0.1666667   0.4166667), wk =   0.0059259
        k(   88) = (   0.1666667   0.2333333   0.0833333), wk =   0.0118519
        k(   89) = (   0.1666667   0.2333333   0.2500000), wk =   0.0118519
        k(   90) = (   0.1666667   0.2333333   0.4166667), wk =   0.0118519
        k(   91) = (   0.1666667   0.3000000   0.0833333), wk =   0.0118519
        k(   92) = (   0.1666667   0.3000000   0.2500000), wk =   0.0118519
        k(   93) = (   0.1666667   0.3000000   0.4166667), wk =   0.0118519
        k(   94) = (   0.1666667   0.3666667   0.0833333), wk =   0.0118519
        k(   95) = (   0.1666667   0.3666667   0.2500000), wk =   0.0118519
        k(   96) = (   0.1666667   0.3666667   0.4166667), wk =   0.0118519
        k(   97) = (   0.1666667   0.4333333   0.0833333), wk =   0.0118519
        k(   98) = (   0.1666667   0.4333333   0.2500000), wk =   0.0118519
        k(   99) = (   0.1666667   0.4333333   0.4166667), wk =   0.0118519
        k(  100) = (   0.1666667  -0.5000000   0.0833333), wk =   0.0118519
        k(  101) = (   0.1666667  -0.5000000   0.2500000), wk =   0.0118519
        k(  102) = (   0.1666667  -0.5000000   0.4166667), wk =   0.0118519
        k(  103) = (   0.1666667  -0.4333333   0.0833333), wk =   0.0118519
        k(  104) = (   0.1666667  -0.4333333   0.2500000), wk =   0.0118519
        k(  105) = (   0.1666667  -0.4333333   0.4166667), wk =   0.0118519
        k(  106) = (   0.1666667  -0.3666667   0.0833333), wk =   0.0118519
        k(  107) = (   0.1666667  -0.3666667   0.2500000), wk =   0.0118519
        k(  108) = (   0.1666667  -0.3666667   0.4166667), wk =   0.0118519
        k(  109) = (   0.1666667  -0.3000000   0.0833333), wk =   0.0118519
        k(  110) = (   0.1666667  -0.3000000   0.2500000), wk =   0.0118519
        k(  111) = (   0.1666667  -0.3000000   0.4166667), wk =   0.0118519
        k(  112) = (   0.1666667  -0.2333333   0.0833333), wk =   0.0118519
        k(  113) = (   0.1666667  -0.2333333   0.2500000), wk =   0.0118519
        k(  114) = (   0.1666667  -0.2333333   0.4166667), wk =   0.0118519
        k(  115) = (   0.1666667  -0.1666667   0.0833333), wk =   0.0059259
        k(  116) = (   0.1666667  -0.1666667   0.2500000), wk =   0.0059259
        k(  117) = (   0.1666667  -0.1666667   0.4166667), wk =   0.0059259
        k(  118) = (   0.2333333   0.2333333   0.0833333), wk =   0.0059259
        k(  119) = (   0.2333333   0.2333333   0.2500000), wk =   0.0059259
        k(  120) = (   0.2333333   0.2333333   0.4166667), wk =   0.0059259
        k(  121) = (   0.2333333   0.3000000   0.0833333), wk =   0.0118519
        k(  122) = (   0.2333333   0.3000000   0.2500000), wk =   0.0118519
        k(  123) = (   0.2333333   0.3000000   0.4166667), wk =   0.0118519
        k(  124) = (   0.2333333   0.3666667   0.0833333), wk =   0.0118519
        k(  125) = (   0.2333333   0.3666667   0.2500000), wk =   0.0118519
        k(  126) = (   0.2333333   0.3666667   0.4166667), wk =   0.0118519
        k(  127) = (   0.2333333   0.4333333   0.0833333), wk =   0.0118519
        k(  128) = (   0.2333333   0.4333333   0.2500000), wk =   0.0118519
        k(  129) = (   0.2333333   0.4333333   0.4166667), wk =   0.0118519
        k(  130) = (   0.2333333  -0.5000000   0.0833333), wk =   0.0118519
        k(  131) = (   0.2333333  -0.5000000   0.2500000), wk =   0.0118519
        k(  132) = (   0.2333333  -0.5000000   0.4166667), wk =   0.0118519
        k(  133) = (   0.2333333  -0.4333333   0.0833333), wk =   0.0118519
        k(  134) = (   0.2333333  -0.4333333   0.2500000), wk =   0.0118519
        k(  135) = (   0.2333333  -0.4333333   0.4166667), wk =   0.0118519
        k(  136) = (   0.2333333  -0.3666667   0.0833333), wk =   0.0118519
        k(  137) = (   0.2333333  -0.3666667   0.2500000), wk =   0.0118519
        k(  138) = (   0.2333333  -0.3666667   0.4166667), wk =   0.0118519
        k(  139) = (   0.2333333  -0.3000000   0.0833333), wk =   0.0118519
        k(  140) = (   0.2333333  -0.3000000   0.2500000), wk =   0.0118519
        k(  141) = (   0.2333333  -0.3000000   0.4166667), wk =   0.0118519
        k(  142) = (   0.2333333  -0.2333333   0.0833333), wk =   0.0059259
        k(  143) = (   0.2333333  -0.2333333   0.2500000), wk =   0.0059259
        k(  144) = (   0.2333333  -0.2333333   0.4166667), wk =   0.0059259
        k(  145) = (   0.3000000   0.3000000   0.0833333), wk =   0.0059259
        k(  146) = (   0.3000000   0.3000000   0.2500000), wk =   0.0059259
        k(  147) = (   0.3000000   0.3000000   0.4166667), wk =   0.0059259
        k(  148) = (   0.3000000   0.3666667   0.0833333), wk =   0.0118519
        k(  149) = (   0.3000000   0.3666667   0.2500000), wk =   0.0118519
        k(  150) = (   0.3000000   0.3666667   0.4166667), wk =   0.0118519
        k(  151) = (   0.3000000   0.4333333   0.0833333), wk =   0.0118519
        k(  152) = (   0.3000000   0.4333333   0.2500000), wk =   0.0118519
        k(  153) = (   0.3000000   0.4333333   0.4166667), wk =   0.0118519
        k(  154) = (   0.3000000  -0.5000000   0.0833333), wk =   0.0118519
        k(  155) = (   0.3000000  -0.5000000   0.2500000), wk =   0.0118519
        k(  156) = (   0.3000000  -0.5000000   0.4166667), wk =   0.0118519
        k(  157) = (   0.3000000  -0.4333333   0.0833333), wk =   0.0118519
        k(  158) = (   0.3000000  -0.4333333   0.2500000), wk =   0.0118519
        k(  159) = (   0.3000000  -0.4333333   0.4166667), wk =   0.0118519
        k(  160) = (   0.3000000  -0.3666667   0.0833333), wk =   0.0118519
        k(  161) = (   0.3000000  -0.3666667   0.2500000), wk =   0.0118519
        k(  162) = (   0.3000000  -0.3666667   0.4166667), wk =   0.0118519
        k(  163) = (   0.3000000  -0.3000000   0.0833333), wk =   0.0059259
        k(  164) = (   0.3000000  -0.3000000   0.2500000), wk =   0.0059259
        k(  165) = (   0.3000000  -0.3000000   0.4166667), wk =   0.0059259
        k(  166) = (   0.3666667   0.3666667   0.0833333), wk =   0.0059259
        k(  167) = (   0.3666667   0.3666667   0.2500000), wk =   0.0059259
        k(  168) = (   0.3666667   0.3666667   0.4166667), wk =   0.0059259
        k(  169) = (   0.3666667   0.4333333   0.0833333), wk =   0.0118519
        k(  170) = (   0.3666667   0.4333333   0.2500000), wk =   0.0118519
        k(  171) = (   0.3666667   0.4333333   0.4166667), wk =   0.0118519
        k(  172) = (   0.3666667  -0.5000000   0.0833333), wk =   0.0118519
        k(  173) = (   0.3666667  -0.5000000   0.2500000), wk =   0.0118519
        k(  174) = (   0.3666667  -0.5000000   0.4166667), wk =   0.0118519
        k(  175) = (   0.3666667  -0.4333333   0.0833333), wk =   0.0118519
        k(  176) = (   0.3666667  -0.4333333   0.2500000), wk =   0.0118519
        k(  177) = (   0.3666667  -0.4333333   0.4166667), wk =   0.0118519
        k(  178) = (   0.3666667  -0.3666667   0.0833333), wk =   0.0059259
        k(  179) = (   0.3666667  -0.3666667   0.2500000), wk =   0.0059259
        k(  180) = (   0.3666667  -0.3666667   0.4166667), wk =   0.0059259
        k(  181) = (   0.4333333   0.4333333   0.0833333), wk =   0.0059259
        k(  182) = (   0.4333333   0.4333333   0.2500000), wk =   0.0059259
        k(  183) = (   0.4333333   0.4333333   0.4166667), wk =   0.0059259
        k(  184) = (   0.4333333  -0.5000000   0.0833333), wk =   0.0118519
        k(  185) = (   0.4333333  -0.5000000   0.2500000), wk =   0.0118519
        k(  186) = (   0.4333333  -0.5000000   0.4166667), wk =   0.0118519
        k(  187) = (   0.4333333  -0.4333333   0.0833333), wk =   0.0059259
        k(  188) = (   0.4333333  -0.4333333   0.2500000), wk =   0.0059259
        k(  189) = (   0.4333333  -0.4333333   0.4166667), wk =   0.0059259
        k(  190) = (  -0.5000000  -0.5000000   0.0833333), wk =   0.0029630
        k(  191) = (  -0.5000000  -0.5000000   0.2500000), wk =   0.0029630
        k(  192) = (  -0.5000000  -0.5000000   0.4166667), wk =   0.0029630

     Dense  grid:    79367 G-vectors     FFT dimensions: (  48,  48,  80)

     Smooth grid:    20077 G-vectors     FFT dimensions: (  32,  32,  50)

     Dynamical RAM for                 wfc:       0.48 MB

     Dynamical RAM for     wfc (w. buffer):       0.48 MB

     Dynamical RAM for           str. fact:       0.61 MB

     Dynamical RAM for           local pot:       0.00 MB

     Dynamical RAM for          nlocal pot:       0.50 MB

     Dynamical RAM for                qrad:       3.93 MB

     Dynamical RAM for          rho,v,vnew:       1.96 MB

     Dynamical RAM for           G-vectors:       1.17 MB

     Dynamical RAM for          h,s,v(r/c):       0.11 MB

     Dynamical RAM for          <psi|beta>:       0.04 MB

     Dynamical RAM for      wfcinit/wfcrot:       1.01 MB

     Dynamical RAM for           addusdens:      14.46 MB

     Estimated static dynamical RAM per process >      11.31 MB

     Estimated max dynamical RAM per process >      25.77 MB

     Estimated total dynamical RAM >     412.37 MB

     The potential is recalculated from file :
     ./TMP/zno.save/charge-density

     Starting wfcs are   28 atomic +   22 random wfcs

     Band Structure Calculation
     CG style diagonalization

     Computing kpt #:     1  of    48 on this pool
     total cpu time spent up to now is        3.9 secs

     Computing kpt #:     2  of    48 on this pool
     c_bands:  2 eigenvalues not converged
     total cpu time spent up to now is        6.4 secs

     Computing kpt #:     3  of    48 on this pool
     c_bands:  2 eigenvalues not converged
     total cpu time spent up to now is        9.0 secs

     Computing kpt #:     4  of    48 on this pool
     total cpu time spent up to now is       11.5 secs

     Computing kpt #:     5  of    48 on this pool
     c_bands:  3 eigenvalues not converged
     total cpu time spent up to now is       14.0 secs

     Computing kpt #:     6  of    48 on this pool
     c_bands:  3 eigenvalues not converged
     total cpu time spent up to now is       16.6 secs

     Computing kpt #:     7  of    48 on this pool
     c_bands:  2 eigenvalues not converged
     total cpu time spent up to now is       19.2 secs

     Computing kpt #:     8  of    48 on this pool
     c_bands:  2 eigenvalues not converged
     total cpu time spent up to now is       21.9 secs

     Computing kpt #:     9  of    48 on this pool
     c_bands:  3 eigenvalues not converged
     total cpu time spent up to now is       24.5 secs

     Computing kpt #:    10  of    48 on this pool
     c_bands:  2 eigenvalues not converged
     total cpu time spent up to now is       27.2 secs

     Computing kpt #:    11  of    48 on this pool
     c_bands:  3 eigenvalues not converged
     total cpu time spent up to now is       29.8 secs

     Computing kpt #:    12  of    48 on this pool
     c_bands:  3 eigenvalues not converged
     total cpu time spent up to now is       32.4 secs

     Computing kpt #:    13  of    48 on this pool
     total cpu time spent up to now is       35.0 secs

     Computing kpt #:    14  of    48 on this pool
     c_bands:  1 eigenvalues not converged
     total cpu time spent up to now is       37.6 secs

     Computing kpt #:    15  of    48 on this pool
     c_bands:  2 eigenvalues not converged
     total cpu time spent up to now is       40.3 secs

     Computing kpt #:    16  of    48 on this pool
     c_bands:  2 eigenvalues not converged
     total cpu time spent up to now is       43.0 secs

     Computing kpt #:    17  of    48 on this pool
     c_bands:  2 eigenvalues not converged
     total cpu time spent up to now is       45.6 secs

     Computing kpt #:    18  of    48 on this pool
     c_bands:  3 eigenvalues not converged
     total cpu time spent up to now is       48.3 secs

     Computing kpt #:    19  of    48 on this pool
     c_bands:  3 eigenvalues not converged
     total cpu time spent up to now is       51.2 secs

     Computing kpt #:    20  of    48 on this pool
     c_bands:  1 eigenvalues not converged
     total cpu time spent up to now is       53.8 secs

     Computing kpt #:    21  of    48 on this pool
     c_bands:  4 eigenvalues not converged
     total cpu time spent up to now is       56.5 secs

     Computing kpt #:    22  of    48 on this pool
     c_bands:  3 eigenvalues not converged
     total cpu time spent up to now is       59.2 secs

     Computing kpt #:    23  of    48 on this pool
     c_bands:  2 eigenvalues not converged
     total cpu time spent up to now is       61.7 secs

     Computing kpt #:    24  of    48 on this pool
     c_bands:  4 eigenvalues not converged
     total cpu time spent up to now is       64.4 secs

     Computing kpt #:    25  of    48 on this pool
     c_bands:  2 eigenvalues not converged
     total cpu time spent up to now is       67.0 secs

     Computing kpt #:    26  of    48 on this pool
     c_bands:  2 eigenvalues not converged
     total cpu time spent up to now is       69.7 secs

     Computing kpt #:    27  of    48 on this pool
     c_bands:  3 eigenvalues not converged
     total cpu time spent up to now is       72.4 secs

     Computing kpt #:    28  of    48 on this pool
     c_bands:  2 eigenvalues not converged
     total cpu time spent up to now is       75.0 secs

     Computing kpt #:    29  of    48 on this pool
     c_bands:  1 eigenvalues not converged
     total cpu time spent up to now is       77.6 secs

     Computing kpt #:    30  of    48 on this pool
     c_bands:  3 eigenvalues not converged
     total cpu time spent up to now is       80.2 secs

     Computing kpt #:    31  of    48 on this pool
     c_bands:  1 eigenvalues not converged
     total cpu time spent up to now is       82.8 secs

     Computing kpt #:    32  of    48 on this pool
     c_bands:  1 eigenvalues not converged
     total cpu time spent up to now is       85.5 secs

     Computing kpt #:    33  of    48 on this pool
     c_bands:  3 eigenvalues not converged
     total cpu time spent up to now is       88.1 secs

     Computing kpt #:    34  of    48 on this pool
     c_bands:  2 eigenvalues not converged
     total cpu time spent up to now is       90.7 secs

     Computing kpt #:    35  of    48 on this pool
     c_bands:  2 eigenvalues not converged
     total cpu time spent up to now is       92.4 secs

     Computing kpt #:    36  of    48 on this pool
     c_bands:  3 eigenvalues not converged
     total cpu time spent up to now is       94.2 secs

     Computing kpt #:    37  of    48 on this pool
     total cpu time spent up to now is       96.0 secs

     Computing kpt #:    38  of    48 on this pool
     c_bands:  2 eigenvalues not converged
     total cpu time spent up to now is       97.8 secs

     Computing kpt #:    39  of    48 on this pool
     c_bands:  4 eigenvalues not converged
     total cpu time spent up to now is       99.6 secs

     Computing kpt #:    40  of    48 on this pool
     total cpu time spent up to now is      101.5 secs

     Computing kpt #:    41  of    48 on this pool
     c_bands:  2 eigenvalues not converged
     total cpu time spent up to now is      103.3 secs

     Computing kpt #:    42  of    48 on this pool
     c_bands:  2 eigenvalues not converged
     total cpu time spent up to now is      105.1 secs

     Computing kpt #:    43  of    48 on this pool
     total cpu time spent up to now is      106.9 secs

     Computing kpt #:    44  of    48 on this pool
     c_bands:  1 eigenvalues not converged
     total cpu time spent up to now is      108.6 secs

     Computing kpt #:    45  of    48 on this pool
     c_bands:  3 eigenvalues not converged
     total cpu time spent up to now is      110.4 secs

     Computing kpt #:    46  of    48 on this pool
     c_bands:  2 eigenvalues not converged
     total cpu time spent up to now is      112.2 secs

     Computing kpt #:    47  of    48 on this pool
     c_bands:  2 eigenvalues not converged
     total cpu time spent up to now is      114.0 secs

     Computing kpt #:    48  of    48 on this pool
     c_bands:  3 eigenvalues not converged
     total cpu time spent up to now is      115.8 secs

     ethr =  1.92E-12,  avg # of iterations = 83.2

     total cpu time spent up to now is      115.8 secs

     End of band structure calculation

          k = 0.0333 0.0577 0.0517 (  2531 PWs)   bands (ev):

  -114.3174-114.3170 -68.6550 -68.6526 -68.6480 -68.6476 -68.6469 -68.6466
    -9.2018  -8.4891   3.0364   3.0678   3.0908   3.1150   3.2538   3.2682
     4.2572   4.2634   4.4735   4.4832   4.8348   7.9065   7.9808   8.3683
     8.7168   8.7788  10.0253  14.0857  16.9774  21.2785  21.7162  22.5188
    22.6436  22.9597  25.3277  26.5915  27.0506  28.4297  29.1051  29.2643
    30.4791  32.3054  33.2222  33.5516  36.7458  36.7754  37.0736  37.4674
    39.6964  39.7059

     occupation numbers 
     1.0000   1.0000   1.0000   1.0000   1.0000   1.0000   1.0000   1.0000
     1.0000   1.0000   1.0000   1.0000   1.0000   1.0000   1.0000   1.0000
     1.0000   1.0000   1.0000   1.0000   1.0000   1.0000   1.0000   1.0000
     1.0000   1.0000   0.0000   0.0000   0.0000   0.0000   0.0000   0.0000
     0.0000   0.0000   0.0000   0.0000   0.0000   0.0000   0.0000   0.0000
     0.0000   0.0000   0.0000   0.0000   0.0000   0.0000   0.0000   0.0000
     0.0000   0.0000

          k = 0.0333 0.0577 0.1550 (  2505 PWs)   bands (ev):

  -114.3170-114.3168 -68.6543 -68.6519 -68.6475 -68.6471 -68.6468 -68.6464
    -9.1105  -8.5890   2.9113   2.9718   3.0924   3.0991   3.2231   3.2309
     4.2965   4.3004   4.4552   4.4597   5.3818   7.7019   8.0170   8.0935
     8.6273   8.6746  10.8344  13.6071  17.4109  21.0030  21.3812  21.7396
    22.3154  22.5967  26.0424  27.2488  27.5589  28.2396  29.3351  29.5164
    32.1657  32.4264  32.9710  33.0590  35.6210  36.0816  36.8057  37.7164
    40.0356  40.0514

     occupation numbers 
     1.0000   1.0000   1.0000   1.0000   1.0000   1.0000   1.0000   1.0000
     1.0000   1.0000   1.0000   1.0000   1.0000   1.0000   1.0000   1.0000
     1.0000   1.0000   1.0000   1.0000   1.0000   1.0000   1.0000   1.0000
     1.0000   1.0000   0.0000   0.0000   0.0000   0.0000   0.0000   0.0000
     0.0000   0.0000   0.0000   0.0000   0.0000   0.0000   0.0000   0.0000
     0.0000   0.0000   0.0000   0.0000   0.0000   0.0000   0.0000   0.0000
     0.0000   0.0000

          k = 0.0333 0.0577 0.2583 (  2515 PWs)   bands (ev):

  -114.3170-114.3170 -68.6543 -68.6534 -68.6473 -68.6472 -68.6470 -68.6466
    -8.9497  -8.7589   2.8205   2.8621   3.1238   3.1254   3.1710   3.1759
     4.3576   4.3584   4.4155   4.4174   6.1451   6.9414   8.2097   8.2788
     8.4342   8.4922  11.8299  12.8021  18.2403  19.4654  21.5625  21.8631
    21.9061  22.1720  26.6993  27.4329  28.3834  28.5220  29.3380  29.3571
    32.4186  33.0823  33.2762  33.7704  34.5590  34.9906  36.4580  38.2643
    40.2943  40.4319

     occupation numbers 
     1.0000   1.0000   1.0000   1.0000   1.0000   1.0000   1.0000   1.0000
     1.0000   1.0000   1.0000   1.0000   1.0000   1.0000   1.0000   1.0000
     1.0000   1.0000   1.0000   1.0000   1.0000   1.0000   1.0000   1.0000
     1.0000   1.0000   0.0000   0.0000   0.0000   0.0000   0.0000   0.0000
     0.0000   0.0000   0.0000   0.0000   0.0000   0.0000   0.0000   0.0000
     0.0000   0.0000   0.0000   0.0000   0.0000   0.0000   0.0000   0.0000
     0.0000   0.0000

          k = 0.0333 0.1347 0.0517 (  2521 PWs)   bands (ev):

  -114.3174-114.3167 -68.6544 -68.6522 -68.6479 -68.6475 -68.6472 -68.6467
    -9.1399  -8.4609   2.9674   3.0934   3.1424   3.1679   3.2762   3.3186
     4.2332   4.2605   4.4782   4.5185   4.8363   7.5233   7.7970   7.9988
     8.6129   8.6951  10.6052  14.5174  16.9732  20.3498  21.7024  22.0300
    22.5661  23.0988  24.8070  25.9699  27.5197  28.8953  29.9975  30.2587
    31.2090  32.4354  33.6584  33.8112  36.1697  37.0822  37.3987  37.6326
    39.1376  39.4015

     occupation numbers 
     1.0000   1.0000   1.0000   1.0000   1.0000   1.0000   1.0000   1.0000
     1.0000   1.0000   1.0000   1.0000   1.0000   1.0000   1.0000   1.0000
     1.0000   1.0000   1.0000   1.0000   1.0000   1.0000   1.0000   1.0000
     1.0000   1.0000   0.0000   0.0000   0.0000   0.0000   0.0000   0.0000
     0.0000   0.0000   0.0000   0.0000   0.0000   0.0000   0.0000   0.0000
     0.0000   0.0000   0.0000   0.0000   0.0000   0.0000   0.0000   0.0000
     0.0000   0.0000

          k = 0.0333 0.1347 0.1550 (  2518 PWs)   bands (ev):

  -114.3172-114.3168 -68.6545 -68.6522 -68.6478 -68.6478 -68.6473 -68.6467
    -9.0525  -8.5554   2.8973   2.9308   3.1301   3.1437   3.2530   3.2794
     4.2804   4.2975   4.4575   4.4764   5.4101   7.4824   7.6886   7.9593
     8.4631   8.5825  11.2351  13.9775  17.4182  20.3830  21.1273  21.6613
    21.8874  22.6869  25.7471  26.7428  27.8786  28.7093  30.1153  30.3074
    32.0428  32.5241  33.2886  34.0119  35.4253  36.1368  37.2549  38.2059
    39.7166  39.7988

     occupation numbers 
     1.0000   1.0000   1.0000   1.0000   1.0000   1.0000   1.0000   1.0000
     1.0000   1.0000   1.0000   1.0000   1.0000   1.0000   1.0000   1.0000
     1.0000   1.0000   1.0000   1.0000   1.0000   1.0000   1.0000   1.0000
     1.0000   1.0000   0.0000   0.0000   0.0000   0.0000   0.0000   0.0000
     0.0000   0.0000   0.0000   0.0000   0.0000   0.0000   0.0000   0.0000
     0.0000   0.0000   0.0000   0.0000   0.0000   0.0000   0.0000   0.0000
     0.0000   0.0000

          k = 0.0333 0.1347 0.2583 (  2523 PWs)   bands (ev):

  -114.3172-114.3170 -68.6541 -68.6536 -68.6479 -68.6478 -68.6473 -68.6469
    -8.8986  -8.7166   2.7985   2.8179   3.1581   3.1650   3.2043   3.2216
     4.3523   4.3559   4.4147   4.4230   6.1610   6.8872   7.9022   8.1474
     8.2011   8.3856  12.1547  13.1261  18.2284  19.3829  20.9358  21.3042
    21.9604  22.2542  26.5958  27.2464  28.2587  29.1586  29.5826  30.0928
    32.0181  32.5258  33.5869  34.6935  35.0221  35.8654  37.1275  38.8530
    39.9137  40.3030

     occupation numbers 
     1.0000   1.0000   1.0000   1.0000   1.0000   1.0000   1.0000   1.0000
     1.0000   1.0000   1.0000   1.0000   1.0000   1.0000   1.0000   1.0000
     1.0000   1.0000   1.0000   1.0000   1.0000   1.0000   1.0000   1.0000
     1.0000   1.0000   0.0000   0.0000   0.0000   0.0000   0.0000   0.0000
     0.0000   0.0000   0.0000   0.0000   0.0000   0.0000   0.0000   0.0000
     0.0000   0.0000   0.0000   0.0000   0.0000   0.0000   0.0000   0.0000
     0.0000   0.0000

          k = 0.0333 0.2117 0.0517 (  2526 PWs)   bands (ev):

  -114.3174-114.3167 -68.6544 -68.6524 -68.6483 -68.6482 -68.6477 -68.6471
    -9.0366  -8.4167   2.8746   3.1258   3.1703   3.2413   3.3901   3.4054
     4.1958   4.2644   4.4849   4.5689   4.8541   6.9421   7.4538   7.6472
     8.4773   8.5574  11.3182  15.1297  16.9631  19.3157  21.0562  21.9414
    22.3906  23.1664  24.1725  25.9221  27.5222  29.9288  30.6811  31.5935
    32.1432  32.4647  33.8872  35.3904  35.8133  37.0388  37.0760  38.3527
    38.7373  39.6732

     occupation numbers 
     1.0000   1.0000   1.0000   1.0000   1.0000   1.0000   1.0000   1.0000
     1.0000   1.0000   1.0000   1.0000   1.0000   1.0000   1.0000   1.0000
     1.0000   1.0000   1.0000   1.0000   1.0000   1.0000   1.0000   1.0000
     1.0000   1.0000   0.0000   0.0000   0.0000   0.0000   0.0000   0.0000
     0.0000   0.0000   0.0000   0.0000   0.0000   0.0000   0.0000   0.0000
     0.0000   0.0000   0.0000   0.0000   0.0000   0.0000   0.0000   0.0000
     0.0000   0.0000

          k = 0.0333 0.2117 0.1550 (  2525 PWs)   bands (ev):

  -114.3173-114.3168 -68.6544 -68.6526 -68.6483 -68.6482 -68.6478 -68.6470
    -8.9557  -8.5018   2.8130   2.9328   3.1841   3.2126   3.3240   3.3614
     4.2577   4.2998   4.4610   4.5031   5.4553   7.0194   7.3022   7.7361
     8.3063   8.4324  11.7965  14.4872  17.4214  19.4030  20.7448  21.3773
    21.9770  22.7672  24.8401  26.7417  27.7287  29.9283  30.8464  31.2037
    32.3191  32.5855  33.6346  35.2496  36.1429  36.2073  37.3331  38.5548
    39.4657  40.1152

     occupation numbers 
     1.0000   1.0000   1.0000   1.0000   1.0000   1.0000   1.0000   1.0000
     1.0000   1.0000   1.0000   1.0000   1.0000   1.0000   1.0000   1.0000
     1.0000   1.0000   1.0000   1.0000   1.0000   1.0000   1.0000   1.0000
     1.0000   1.0000   0.0000   0.0000   0.0000   0.0000   0.0000   0.0000
     0.0000   0.0000   0.0000   0.0000   0.0000   0.0000   0.0000   0.0000
     0.0000   0.0000   0.0000   0.0000   0.0000   0.0000   0.0000   0.0000
     0.0000   0.0000

          k = 0.0333 0.2117 0.2583 (  2529 PWs)   bands (ev):

  -114.3173-114.3170 -68.6540 -68.6536 -68.6483 -68.6481 -68.6477 -68.6475
    -8.8140  -8.6478   2.7462   2.7729   3.2151   3.2277   3.2688   3.2975
     4.3467   4.3562   4.4152   4.4340   6.1512   6.7182   7.5010   7.9162
     7.9676   8.2131  12.6144  13.5739  18.1520  19.0355  20.4128  20.7679
    22.0802  22.3584  25.8132  26.8042  28.3025  29.7414  30.4881  31.3826
    31.7594  32.4315  34.1502  35.1653  36.1257  36.7314  37.7080  39.0695
    39.8207  40.3657

     occupation numbers 
     1.0000   1.0000   1.0000   1.0000   1.0000   1.0000   1.0000   1.0000
     1.0000   1.0000   1.0000   1.0000   1.0000   1.0000   1.0000   1.0000
     1.0000   1.0000   1.0000   1.0000   1.0000   1.0000   1.0000   1.0000
     1.0000   1.0000   0.0000   0.0000   0.0000   0.0000   0.0000   0.0000
     0.0000   0.0000   0.0000   0.0000   0.0000   0.0000   0.0000   0.0000
     0.0000   0.0000   0.0000   0.0000   0.0000   0.0000   0.0000   0.0000
     0.0000   0.0000

          k = 0.0333 0.2887 0.0517 (  2527 PWs)   bands (ev):

  -114.3173-114.3168 -68.6543 -68.6524 -68.6489 -68.6484 -68.6483 -68.6473
    -8.9047  -8.3668   2.7900   3.1154   3.2193   3.3300   3.5165   3.5704
     4.1587   4.2848   4.4925   4.6067   4.9157   6.3159   7.0281   7.3202
     8.2882   8.3852  12.0886  15.7222  16.9467  18.3949  20.3632  21.6650
    22.1867  23.0003  24.1616  26.3543  27.4307  29.6292  31.5698  32.8241
    33.1776  33.6072  34.3380  35.4823  36.7949  36.8964  37.2603  38.1028
    39.3944  40.1189

     occupation numbers 
     1.0000   1.0000   1.0000   1.0000   1.0000   1.0000   1.0000   1.0000
     1.0000   1.0000   1.0000   1.0000   1.0000   1.0000   1.0000   1.0000
     1.0000   1.0000   1.0000   1.0000   1.0000   1.0000   1.0000   1.0000
     1.0000   1.0000   0.0000   0.0000   0.0000   0.0000   0.0000   0.0000
     0.0000   0.0000   0.0000   0.0000   0.0000   0.0000   0.0000   0.0000
     0.0000   0.0000   0.0000   0.0000   0.0000   0.0000   0.0000   0.0000
     0.0000   0.0000

          k = 0.0333 0.2887 0.1550 (  2522 PWs)   bands (ev):

  -114.3172-114.3169 -68.6544 -68.6527 -68.6487 -68.6482 -68.6482 -68.6472
    -8.8331  -8.4390   2.7337   2.9219   3.2469   3.3009   3.4323   3.4675
     4.2395   4.3157   4.4664   4.5347   5.4896   6.4632   6.9094   7.4589
     8.1641   8.2473  12.4275  14.9664  17.4013  18.5128  20.1948  21.2914
    22.0851  22.7777  24.1444  26.9554  27.6425  30.2549  31.0449  31.8931
    33.1207  33.8942  34.2461  36.0415  36.3940  36.9635  37.1898  39.0302
    39.5714  40.4529

     occupation numbers 
     1.0000   1.0000   1.0000   1.0000   1.0000   1.0000   1.0000   1.0000
     1.0000   1.0000   1.0000   1.0000   1.0000   1.0000   1.0000   1.0000
     1.0000   1.0000   1.0000   1.0000   1.0000   1.0000   1.0000   1.0000
     1.0000   1.0000   0.0000   0.0000   0.0000   0.0000   0.0000   0.0000
     0.0000   0.0000   0.0000   0.0000   0.0000   0.0000   0.0000   0.0000
     0.0000   0.0000   0.0000   0.0000   0.0000   0.0000   0.0000   0.0000
     0.0000   0.0000

          k = 0.0333 0.2887 0.2583 (  2518 PWs)   bands (ev):

  -114.3170-114.3169 -68.6539 -68.6535 -68.6485 -68.6481 -68.6476 -68.6473
    -8.7086  -8.5642   2.6851   2.7369   3.2906   3.3092   3.3549   3.3915
     4.3471   4.3654   4.4204   4.4513   6.0272   6.3814   7.1871   7.7025
     7.7725   8.0022  13.1122  14.0204  17.9544  18.4417  20.0922  20.5726
    22.1980  22.4466  25.0188  26.2693  28.6463  30.1444  30.9585  31.2108
    33.1880  33.4218  34.8344  35.5301  36.9935  37.1001  38.0696  39.3925
    39.9656  40.5612

     occupation numbers 
     1.0000   1.0000   1.0000   1.0000   1.0000   1.0000   1.0000   1.0000
     1.0000   1.0000   1.0000   1.0000   1.0000   1.0000   1.0000   1.0000
     1.0000   1.0000   1.0000   1.0000   1.0000   1.0000   1.0000   1.0000
     1.0000   1.0000   0.0000   0.0000   0.0000   0.0000   0.0000   0.0000
     0.0000   0.0000   0.0000   0.0000   0.0000   0.0000   0.0000   0.0000
     0.0000   0.0000   0.0000   0.0000   0.0000   0.0000   0.0000   0.0000
     0.0000   0.0000

          k = 0.0333 0.3657 0.0517 (  2513 PWs)   bands (ev):

  -114.3170-114.3168 -68.6541 -68.6524 -68.6490 -68.6484 -68.6483 -68.6472
    -8.7622  -8.3235   2.7428   3.0874   3.2693   3.4367   3.6425   3.7231
     4.1607   4.3252   4.5012   4.6299   5.0018   5.7657   6.6032   7.0048
     8.0492   8.2061  12.8761  16.0699  16.8953  17.6984  19.8731  21.1829
    22.1363  22.8892  24.3466  26.8938  27.6703  29.0066  31.6749  33.6042
    34.0926  34.6185  35.0381  36.3178  36.6181  37.3984  37.7311  38.4558
    39.1545  40.3862

     occupation numbers 
     1.0000   1.0000   1.0000   1.0000   1.0000   1.0000   1.0000   1.0000
     1.0000   1.0000   1.0000   1.0000   1.0000   1.0000   1.0000   1.0000
     1.0000   1.0000   1.0000   1.0000   1.0000   1.0000   1.0000   1.0000
     1.0000   1.0000   0.0000   0.0000   0.0000   0.0000   0.0000   0.0000
     0.0000   0.0000   0.0000   0.0000   0.0000   0.0000   0.0000   0.0000
     0.0000   0.0000   0.0000   0.0000   0.0000   0.0000   0.0000   0.0000
     0.0000   0.0000

          k = 0.0333 0.3657 0.1550 (  2518 PWs)   bands (ev):

  -114.3171-114.3168 -68.6543 -68.6529 -68.6489 -68.6486 -68.6483 -68.6474
    -8.7022  -8.3806   2.6860   2.9009   3.3069   3.4022   3.5498   3.5814
     4.2462   4.3493   4.4749   4.5684   5.4108   5.9855   6.5865   7.1755
     8.0050   8.0581  13.0709  15.2759  17.3337  17.8107  19.7902  21.1853
    22.1058  22.7645  23.8075  26.9958  28.1357  30.0112  30.7147  32.6813
    33.8926  34.9807  35.2882  36.0252  36.7935  37.5113  37.9992  39.1128
    40.0731  40.6881

     occupation numbers 
     1.0000   1.0000   1.0000   1.0000   1.0000   1.0000   1.0000   1.0000
     1.0000   1.0000   1.0000   1.0000   1.0000   1.0000   1.0000   1.0000
     1.0000   1.0000   1.0000   1.0000   1.0000   1.0000   1.0000   1.0000
     1.0000   1.0000   0.0000   0.0000   0.0000   0.0000   0.0000   0.0000
     0.0000   0.0000   0.0000   0.0000   0.0000   0.0000   0.0000   0.0000
     0.0000   0.0000   0.0000   0.0000   0.0000   0.0000   0.0000   0.0000
     0.0000   0.0000

          k = 0.0333 0.3657 0.2583 (  2516 PWs)   bands (ev):

  -114.3170-114.3169 -68.6541 -68.6531 -68.6487 -68.6486 -68.6479 -68.6477
    -8.5989  -8.4810   2.6438   2.7082   3.3731   3.4019   3.4507   3.4876
     4.3620   4.3876   4.4334   4.4764   5.7187   5.9508   7.0740   7.4608
     7.6847   7.7901  13.5812  14.3776  17.6756  17.8709  19.8943  20.5337
    22.2854  22.5141  24.4751  25.8674  29.2492  30.4516  30.8751  31.1834
    34.1423  34.7201  35.3537  35.6969  37.4008  37.5091  39.0371  39.7883
    40.3138  41.2414

     occupation numbers 
     1.0000   1.0000   1.0000   1.0000   1.0000   1.0000   1.0000   1.0000
     1.0000   1.0000   1.0000   1.0000   1.0000   1.0000   1.0000   1.0000
     1.0000   1.0000   1.0000   1.0000   1.0000   1.0000   1.0000   1.0000
     1.0000   1.0000   0.0000   0.0000   0.0000   0.0000   0.0000   0.0000
     0.0000   0.0000   0.0000   0.0000   0.0000   0.0000   0.0000   0.0000
     0.0000   0.0000   0.0000   0.0000   0.0000   0.0000   0.0000   0.0000
     0.0000   0.0000

          k = 0.0333 0.4426 0.0517 (  2506 PWs)   bands (ev):

  -114.3169-114.3167 -68.6540 -68.6524 -68.6490 -68.6487 -68.6483 -68.6472
    -8.6310  -8.2979   2.7480   3.0519   3.3041   3.5509   3.7526   3.7690
     4.2360   4.3759   4.5109   4.6868   4.9505   5.4663   6.2432   6.7409
     7.7895   8.0519  13.6390  16.0574  16.6387  17.4092  19.5482  21.0340
    22.0032  22.9116  24.4276  27.1954  28.2373  28.6997  31.4031  33.6223
    34.5277  35.0268  35.6881  36.3834  37.0693  37.9705  38.0701  39.3913
    40.1555  41.2658

     occupation numbers 
     1.0000   1.0000   1.0000   1.0000   1.0000   1.0000   1.0000   1.0000
     1.0000   1.0000   1.0000   1.0000   1.0000   1.0000   1.0000   1.0000
     1.0000   1.0000   1.0000   1.0000   1.0000   1.0000   1.0000   1.0000
     1.0000   1.0000   0.0000   0.0000   0.0000   0.0000   0.0000   0.0000
     0.0000   0.0000   0.0000   0.0000   0.0000   0.0000   0.0000   0.0000
     0.0000   0.0000   0.0000   0.0000   0.0000   0.0000   0.0000   0.0000
     0.0000   0.0000

          k = 0.0333 0.4426 0.1550 (  2516 PWs)   bands (ev):

  -114.3170-114.3168 -68.6544 -68.6530 -68.6491 -68.6489 -68.6485 -68.6475
    -8.5837  -8.3394   2.6819   2.8723   3.3509   3.5092   3.6370   3.6820
     4.2996   4.3938   4.4864   4.6087   5.1410   5.6287   6.4736   6.9362
     7.8302   7.8955  13.6709  15.3620  17.0937  17.4715  19.4844  21.1641
    22.0527  22.7936  23.6721  27.0390  28.8868  29.9122  30.2442  33.3194
    33.8959  35.3342  35.6432  36.0196  37.3988  38.2446  39.2796  39.4680
    40.5519  41.7864

     occupation numbers 
     1.0000   1.0000   1.0000   1.0000   1.0000   1.0000   1.0000   1.0000
     1.0000   1.0000   1.0000   1.0000   1.0000   1.0000   1.0000   1.0000
     1.0000   1.0000   1.0000   1.0000   1.0000   1.0000   1.0000   1.0000
     1.0000   1.0000   0.0000   0.0000   0.0000   0.0000   0.0000   0.0000
     0.0000   0.0000   0.0000   0.0000   0.0000   0.0000   0.0000   0.0000
     0.0000   0.0000   0.0000   0.0000   0.0000   0.0000   0.0000   0.0000
     0.0000   0.0000

          k = 0.0333 0.4426 0.2583 (  2506 PWs)   bands (ev):

  -114.3169-114.3167 -68.6538 -68.6532 -68.6489 -68.6485 -68.6480 -68.6478
    -8.5034  -8.4138   2.6307   2.6891   3.4383   3.4990   3.5460   3.5683
     4.3999   4.4201   4.4548   4.5141   5.3385   5.5264   7.0892   7.2590
     7.5788   7.6622  13.9709  14.6021  17.3791  17.5042  19.7354  20.4920
    22.3356  22.5736  24.2168  25.6954  29.9527  30.3779  30.7705  31.6573
    34.1434  35.0090  35.4937  35.7285  38.1067  38.6840  39.9872  40.4525
    40.6786  42.1154

     occupation numbers 
     1.0000   1.0000   1.0000   1.0000   1.0000   1.0000   1.0000   1.0000
     1.0000   1.0000   1.0000   1.0000   1.0000   1.0000   1.0000   1.0000
     1.0000   1.0000   1.0000   1.0000   1.0000   1.0000   1.0000   1.0000
     1.0000   1.0000   0.0000   0.0000   0.0000   0.0000   0.0000   0.0000
     0.0000   0.0000   0.0000   0.0000   0.0000   0.0000   0.0000   0.0000
     0.0000   0.0000   0.0000   0.0000   0.0000   0.0000   0.0000   0.0000
     0.0000   0.0000

          k = 0.0333 0.5196 0.0517 (  2505 PWs)   bands (ev):

  -114.3168-114.3167 -68.6540 -68.6527 -68.6490 -68.6486 -68.6486 -68.6474
    -8.5378  -8.2928   2.7927   3.0089   3.3218   3.6483   3.7330   3.8376
     4.2980   4.4186   4.5191   4.6561   4.9432   5.3338   6.0571   6.5777
     7.5800   7.9534  14.2992  15.7349  16.4004  17.3655  19.3482  21.1256
    21.8956  22.9500  24.4182  27.3421  28.2104  29.1938  31.1896  33.6318
    34.3953  34.8493  35.8525  36.3830  37.1246  37.9611  39.4238  40.5404
    41.4690  41.8338

     occupation numbers 
     1.0000   1.0000   1.0000   1.0000   1.0000   1.0000   1.0000   1.0000
     1.0000   1.0000   1.0000   1.0000   1.0000   1.0000   1.0000   1.0000
     1.0000   1.0000   1.0000   1.0000   1.0000   1.0000   1.0000   1.0000
     1.0000   1.0000   0.0000   0.0000   0.0000   0.0000   0.0000   0.0000
     0.0000   0.0000   0.0000   0.0000   0.0000   0.0000   0.0000   0.0000
     0.0000   0.0000   0.0000   0.0000   0.0000   0.0000   0.0000   0.0000
     0.0000   0.0000

          k = 0.0333 0.5196 0.1550 (  2502 PWs)   bands (ev):

  -114.3169-114.3166 -68.6541 -68.6526 -68.6489 -68.6486 -68.6484 -68.6473
    -8.5013  -8.3216   2.7116   2.8374   3.3741   3.6011   3.6717   3.7484
     4.3803   4.4292   4.4976   4.6251   4.9616   5.2996   6.5092   6.7933
     7.6845   7.7898  14.1360  15.2881  16.8043  17.4189  19.2766  21.2025
    22.0176  22.8340  23.6135  27.1310  29.4170  29.8937  30.0316  33.5465
    33.8534  35.1421  35.5254  36.0434  37.9067  38.3596  39.8632  40.9679
    41.5122  42.1429

     occupation numbers 
     1.0000   1.0000   1.0000   1.0000   1.0000   1.0000   1.0000   1.0000
     1.0000   1.0000   1.0000   1.0000   1.0000   1.0000   1.0000   1.0000
     1.0000   1.0000   1.0000   1.0000   1.0000   1.0000   1.0000   1.0000
     1.0000   1.0000   0.0000   0.0000   0.0000   0.0000   0.0000   0.0000
     0.0000   0.0000   0.0000   0.0000   0.0000   0.0000   0.0000   0.0000
     0.0000   0.0000   0.0000   0.0000   0.0000   0.0000   0.0000   0.0000
     0.0000   0.0000

          k = 0.0333 0.5196 0.2583 (  2497 PWs)   bands (ev):

  -114.3167-114.3167 -68.6537 -68.6532 -68.6487 -68.6486 -68.6479 -68.6476
    -8.4406  -8.3747   2.6387   2.6749   3.4737   3.5776   3.6155   3.6206
     4.4396   4.4526   4.4961   4.5641   5.0568   5.1826   7.0739   7.1956
     7.4643   7.6196  14.2277  14.6986  17.1446  17.3611  19.6092  20.4421
    22.3553  22.6190  24.1504  25.6825  30.1720  30.4748  30.8371  32.1617
    33.9090  34.8980  35.2815  35.6082  38.6585  39.2489  40.6667  41.2491
    41.6993  41.9353

     occupation numbers 
     1.0000   1.0000   1.0000   1.0000   1.0000   1.0000   1.0000   1.0000
     1.0000   1.0000   1.0000   1.0000   1.0000   1.0000   1.0000   1.0000
     1.0000   1.0000   1.0000   1.0000   1.0000   1.0000   1.0000   1.0000
     1.0000   1.0000   0.0000   0.0000   0.0000   0.0000   0.0000   0.0000
     0.0000   0.0000   0.0000   0.0000   0.0000   0.0000   0.0000   0.0000
     0.0000   0.0000   0.0000   0.0000   0.0000   0.0000   0.0000   0.0000
     0.0000   0.0000

          k = 0.0333-0.5581 0.0517 (  2503 PWs)   bands (ev):

  -114.3168-114.3167 -68.6539 -68.6527 -68.6491 -68.6487 -68.6485 -68.6473
    -8.5159  -8.2939   2.8114   2.9930   3.3252   3.6753   3.7208   3.8542
     4.3092   4.4296   4.5214   4.6061   5.0337   5.2462   6.0344   6.5447
     7.5285   7.9325  14.5055  15.5793  16.3593  17.3612  19.3056  21.1641
    21.8724  22.9582  24.4103  27.3642  28.1876  29.3578  31.1435  33.7029
    34.2255  34.7773  35.9061  36.3806  37.0825  37.9989  39.9290  40.7707
    41.6950  42.3168

     occupation numbers 
     1.0000   1.0000   1.0000   1.0000   1.0000   1.0000   1.0000   1.0000
     1.0000   1.0000   1.0000   1.0000   1.0000   1.0000   1.0000   1.0000
     1.0000   1.0000   1.0000   1.0000   1.0000   1.0000   1.0000   1.0000
     1.0000   1.0000   0.0000   0.0000   0.0000   0.0000   0.0000   0.0000
     0.0000   0.0000   0.0000   0.0000   0.0000   0.0000   0.0000   0.0000
     0.0000   0.0000   0.0000   0.0000   0.0000   0.0000   0.0000   0.0000
     0.0000   0.0000

          k = 0.0333-0.5581 0.1550 (  2500 PWs)   bands (ev):

  -114.3168-114.3166 -68.6540 -68.6526 -68.6487 -68.6484 -68.6483 -68.6474
    -8.4823  -8.3195   2.7257   2.8239   3.3785   3.6266   3.6745   3.7627
     4.4076   4.4365   4.5021   4.6024   4.9886   5.1733   6.5240   6.7677
     7.6475   7.7672  14.2570  15.2469  16.7385  17.4139  19.2304  21.2136
    22.0130  22.8449  23.6025  27.1577  29.5084  29.8238  30.0982  33.5108
    33.9223  35.0473  35.5145  36.0007  38.0468  38.3164  40.1193  41.2552
    41.6585  42.3074

     occupation numbers 
     1.0000   1.0000   1.0000   1.0000   1.0000   1.0000   1.0000   1.0000
     1.0000   1.0000   1.0000   1.0000   1.0000   1.0000   1.0000   1.0000
     1.0000   1.0000   1.0000   1.0000   1.0000   1.0000   1.0000   1.0000
     1.0000   1.0000   0.0000   0.0000   0.0000   0.0000   0.0000   0.0000
     0.0000   0.0000   0.0000   0.0000   0.0000   0.0000   0.0000   0.0000
     0.0000   0.0000   0.0000   0.0000   0.0000   0.0000   0.0000   0.0000
     0.0000   0.0000

          k = 0.0333-0.5581 0.2583 (  2501 PWs)   bands (ev):

  -114.3168-114.3167 -68.6539 -68.6532 -68.6489 -68.6487 -68.6479 -68.6475
    -8.4268  -8.3670   2.6441   2.6695   3.4805   3.5962   3.6297   3.6342
     4.4472   4.4594   4.5233   4.5777   5.0055   5.0772   7.0535   7.2037
     7.4382   7.6097  14.2852  14.7125  17.0945  17.3351  19.5788  20.4285
    22.3580  22.6295  24.1465  25.6900  30.1335  30.5326  30.9129  32.2905
    33.8580  34.8719  35.1954  35.5389  38.7687  39.2949  40.7688  41.4738
    41.9592  42.1572

     occupation numbers 
     1.0000   1.0000   1.0000   1.0000   1.0000   1.0000   1.0000   1.0000
     1.0000   1.0000   1.0000   1.0000   1.0000   1.0000   1.0000   1.0000
     1.0000   1.0000   1.0000   1.0000   1.0000   1.0000   1.0000   1.0000
     1.0000   1.0000   0.0000   0.0000   0.0000   0.0000   0.0000   0.0000
     0.0000   0.0000   0.0000   0.0000   0.0000   0.0000   0.0000   0.0000
     0.0000   0.0000   0.0000   0.0000   0.0000   0.0000   0.0000   0.0000
     0.0000   0.0000

          k = 0.0333-0.4811 0.0517 (  2505 PWs)   bands (ev):

  -114.3168-114.3168 -68.6541 -68.6526 -68.6489 -68.6488 -68.6485 -68.6472
    -8.5777  -8.2932   2.7680   3.0307   3.3149   3.6042   3.7491   3.8058
     4.2740   4.3995   4.5155   4.7073   4.8942   5.4068   6.1224   6.6439
     7.6721   7.9940  13.9914  15.9230  16.4919  17.3774  19.4308  21.0696
    21.9407  22.9337  24.4278  27.2876  28.2567  28.9211  31.2786  33.5977
    34.5498  34.9460  35.7816  36.3912  37.1511  37.9273  38.6681  40.3674
    40.7293  41.2367

     occupation numbers 
     1.0000   1.0000   1.0000   1.0000   1.0000   1.0000   1.0000   1.0000
     1.0000   1.0000   1.0000   1.0000   1.0000   1.0000   1.0000   1.0000
     1.0000   1.0000   1.0000   1.0000   1.0000   1.0000   1.0000   1.0000
     1.0000   1.0000   0.0000   0.0000   0.0000   0.0000   0.0000   0.0000
     0.0000   0.0000   0.0000   0.0000   0.0000   0.0000   0.0000   0.0000
     0.0000   0.0000   0.0000   0.0000   0.0000   0.0000   0.0000   0.0000
     0.0000   0.0000

          k = 0.0333-0.4811 0.1550 (  2511 PWs)   bands (ev):

  -114.3170-114.3167 -68.6542 -68.6530 -68.6491 -68.6488 -68.6484 -68.6474
    -8.5363  -8.3277   2.6943   2.8552   3.3650   3.5593   3.6605   3.7208
     4.3405   4.4142   4.4923   4.6273   5.0155   5.4592   6.4858   6.8497
     7.7493   7.8335  13.9294  15.3367  16.9288  17.4332  19.3641  21.1829
    22.0299  22.8153  23.6360  27.0862  29.2073  29.9327  30.0573  33.5265
    33.8045  35.2720  35.5730  36.0656  37.6793  38.3661  39.5488  40.2515
    41.1105  42.2482

     occupation numbers 
     1.0000   1.0000   1.0000   1.0000   1.0000   1.0000   1.0000   1.0000
     1.0000   1.0000   1.0000   1.0000   1.0000   1.0000   1.0000   1.0000
     1.0000   1.0000   1.0000   1.0000   1.0000   1.0000   1.0000   1.0000
     1.0000   1.0000   0.0000   0.0000   0.0000   0.0000   0.0000   0.0000
     0.0000   0.0000   0.0000   0.0000   0.0000   0.0000   0.0000   0.0000
     0.0000   0.0000   0.0000   0.0000   0.0000   0.0000   0.0000   0.0000
     0.0000   0.0000

          k = 0.0333-0.4811 0.2583 (  2502 PWs)   bands (ev):

  -114.3168-114.3167 -68.6538 -68.6533 -68.6488 -68.6487 -68.6478 -68.6476
    -8.4668  -8.3903   2.6331   2.6816   3.4597   3.5432   3.5862   3.5984
     4.4235   4.4379   4.4705   4.5391   5.1750   5.3391   7.0953   7.2029
     7.5132   7.6373  14.1198  14.6641  17.2420  17.4147  19.6643  20.4654
    22.3485  22.5994  24.1683  25.6781  30.1956  30.3438  30.7753  31.9349
    34.0122  34.9535  35.4040  35.6894  38.4348  39.0915  40.3966  40.7678
    41.2450  41.9830

     occupation numbers 
     1.0000   1.0000   1.0000   1.0000   1.0000   1.0000   1.0000   1.0000
     1.0000   1.0000   1.0000   1.0000   1.0000   1.0000   1.0000   1.0000
     1.0000   1.0000   1.0000   1.0000   1.0000   1.0000   1.0000   1.0000
     1.0000   1.0000   0.0000   0.0000   0.0000   0.0000   0.0000   0.0000
     0.0000   0.0000   0.0000   0.0000   0.0000   0.0000   0.0000   0.0000
     0.0000   0.0000   0.0000   0.0000   0.0000   0.0000   0.0000   0.0000
     0.0000   0.0000

          k = 0.0333-0.4041 0.0517 (  2511 PWs)   bands (ev):

  -114.3170-114.3167 -68.6541 -68.6524 -68.6491 -68.6486 -68.6484 -68.6472
    -8.6937  -8.3080   2.7387   3.0707   3.2889   3.4939   3.7031   3.7583
     4.1925   4.3504   4.5060   4.6514   5.0063   5.5728   6.4092   6.8633
     7.9187   8.1238  13.2637  16.1076  16.7967  17.4984  19.6950  21.0618
    22.0736  22.8916  24.4036  27.0681  27.9738  28.7733  31.5466  33.6665
    34.3338  34.9772  35.4189  36.3922  36.8603  37.7059  38.0278  38.5865
    39.4980  40.8855

     occupation numbers 
     1.0000   1.0000   1.0000   1.0000   1.0000   1.0000   1.0000   1.0000
     1.0000   1.0000   1.0000   1.0000   1.0000   1.0000   1.0000   1.0000
     1.0000   1.0000   1.0000   1.0000   1.0000   1.0000   1.0000   1.0000
     1.0000   1.0000   0.0000   0.0000   0.0000   0.0000   0.0000   0.0000
     0.0000   0.0000   0.0000   0.0000   0.0000   0.0000   0.0000   0.0000
     0.0000   0.0000   0.0000   0.0000   0.0000   0.0000   0.0000   0.0000
     0.0000   0.0000

          k = 0.0333-0.4041 0.1550 (  2515 PWs)   bands (ev):

  -114.3171-114.3167 -68.6543 -68.6529 -68.6489 -68.6487 -68.6484 -68.6475
    -8.6400  -8.3572   2.6784   2.8877   3.3314   3.4558   3.5997   3.6346
     4.2666   4.3712   4.4804   4.5874   5.2891   5.8004   6.5002   7.0471
     7.9176   7.9718  13.3805  15.3456  17.2479  17.5803  19.6280  21.1609
    22.0820  22.7745  23.7258  27.0059  28.5103  29.9382  30.4731  33.0231
    33.9774  35.2426  35.5910  35.9842  37.0990  37.9111  38.6408  39.2154
    40.1574  41.2208

     occupation numbers 
     1.0000   1.0000   1.0000   1.0000   1.0000   1.0000   1.0000   1.0000
     1.0000   1.0000   1.0000   1.0000   1.0000   1.0000   1.0000   1.0000
     1.0000   1.0000   1.0000   1.0000   1.0000   1.0000   1.0000   1.0000
     1.0000   1.0000   0.0000   0.0000   0.0000   0.0000   0.0000   0.0000
     0.0000   0.0000   0.0000   0.0000   0.0000   0.0000   0.0000   0.0000
     0.0000   0.0000   0.0000   0.0000   0.0000   0.0000   0.0000   0.0000
     0.0000   0.0000

          k = 0.0333-0.4041 0.2583 (  2512 PWs)   bands (ev):

  -114.3169-114.3169 -68.6539 -68.6532 -68.6489 -68.6487 -68.6480 -68.6477
    -8.5482  -8.4445   2.6338   2.6976   3.4093   3.4506   3.4996   3.5309
     4.3779   4.4031   4.4431   4.4932   5.5263   5.7333   7.0743   7.3505
     7.6436   7.7065  13.7891  14.5073  17.5313  17.6510  19.8134  20.5159
    22.3150  22.5446  24.3139  25.7536  29.6045  30.4491  30.8075  31.3829
    34.2303  34.9777  35.4842  35.7221  37.7271  38.0632  39.6018  39.9901
    40.4723  41.7915

     occupation numbers 
     1.0000   1.0000   1.0000   1.0000   1.0000   1.0000   1.0000   1.0000
     1.0000   1.0000   1.0000   1.0000   1.0000   1.0000   1.0000   1.0000
[...]
    -8.5520  -8.3308   2.7073   2.8819   3.3484   3.5290   3.6534   3.7076
     4.3100   4.4065   4.4948   4.6316   5.0707   5.5542   6.4678   6.8190
     7.7395   7.8379  13.8977  15.4308  17.0289  17.4569  19.3760  21.0084
    21.7761  22.8846  23.9718  27.0200  28.8127  30.1575  30.3319  33.0609
    34.0243  35.1670  35.7490  36.0475  37.6022  38.2149  39.3266  39.9673
    40.9514  42.0579

     occupation numbers 
     1.0000   1.0000   1.0000   1.0000   1.0000   1.0000   1.0000   1.0000
     1.0000   1.0000   1.0000   1.0000   1.0000   1.0000   1.0000   1.0000
     1.0000   1.0000   1.0000   1.0000   1.0000   1.0000   1.0000   1.0000
     1.0000   1.0000   0.0000   0.0000   0.0000   0.0000   0.0000   0.0000
     0.0000   0.0000   0.0000   0.0000   0.0000   0.0000   0.0000   0.0000
     0.0000   0.0000   0.0000   0.0000   0.0000   0.0000   0.0000   0.0000
     0.0000   0.0000

          k = 0.3667-0.2887 0.2583 (  2507 PWs)   bands (ev):

  -114.3168-114.3168 -68.6539 -68.6532 -68.6489 -68.6487 -68.6480 -68.6478
    -8.4787  -8.3976   2.6497   2.7027   3.4348   3.5079   3.5730   3.5951
     4.3998   4.4280   4.4783   4.5387   5.2537   5.4335   7.0320   7.2046
     7.4648   7.6651  14.1417  14.7222  17.3180  17.4651  19.5856  20.2852
    22.3214  22.6714  24.3711  25.7136  29.7669  30.3395  30.9671  31.6372
    34.3164  35.1316  35.4147  35.6338  38.3530  39.0302  40.0544  40.6054
    40.9116  42.1865

     occupation numbers 
     1.0000   1.0000   1.0000   1.0000   1.0000   1.0000   1.0000   1.0000
     1.0000   1.0000   1.0000   1.0000   1.0000   1.0000   1.0000   1.0000
     1.0000   1.0000   1.0000   1.0000   1.0000   1.0000   1.0000   1.0000
     1.0000   1.0000   0.0000   0.0000   0.0000   0.0000   0.0000   0.0000
     0.0000   0.0000   0.0000   0.0000   0.0000   0.0000   0.0000   0.0000
     0.0000   0.0000   0.0000   0.0000   0.0000   0.0000   0.0000   0.0000
     0.0000   0.0000

          k = 0.3667-0.2117 0.0517 (  2509 PWs)   bands (ev):

  -114.3170-114.3167 -68.6540 -68.6525 -68.6491 -68.6485 -68.6482 -68.6473
    -8.6642  -8.3028   2.7348   3.0571   3.3005   3.5238   3.7286   3.7622
     4.2160   4.3654   4.5080   4.6631   4.9856   5.5005   6.3260   6.8295
     7.8576   8.1054  13.4244  16.0746  16.7020  17.4433  19.6171  21.0825
    22.1417  22.8814  24.3568  27.1667  28.1895  28.5102  31.4742  33.6113
    34.7712  34.8017  35.6182  36.4331  36.9737  37.9831  38.0556  38.8538
    39.6391  41.1829

     occupation numbers 
     1.0000   1.0000   1.0000   1.0000   1.0000   1.0000   1.0000   1.0000
     1.0000   1.0000   1.0000   1.0000   1.0000   1.0000   1.0000   1.0000
     1.0000   1.0000   1.0000   1.0000   1.0000   1.0000   1.0000   1.0000
     1.0000   1.0000   0.0000   0.0000   0.0000   0.0000   0.0000   0.0000
     0.0000   0.0000   0.0000   0.0000   0.0000   0.0000   0.0000   0.0000
     0.0000   0.0000   0.0000   0.0000   0.0000   0.0000   0.0000   0.0000
     0.0000   0.0000

          k = 0.3667-0.2117 0.1550 (  2516 PWs)   bands (ev):

  -114.3171-114.3168 -68.6544 -68.6529 -68.6490 -68.6489 -68.6486 -68.6473
    -8.6134  -8.3484   2.6724   2.8755   3.3458   3.4834   3.6205   3.6565
     4.2840   4.3808   4.4822   4.5945   5.2161   5.7099   6.4818   7.0172
     7.8843   7.9449  13.4991  15.3358  17.1675  17.5109  19.5633  21.2180
    22.2059  22.7510  23.5432  27.0383  28.8059  29.7696  30.3245  33.3449
    33.8693  35.4462  35.4535  36.0827  37.1890  38.0957  39.0864  39.2227
    40.2850  41.4249

     occupation numbers 
     1.0000   1.0000   1.0000   1.0000   1.0000   1.0000   1.0000   1.0000
     1.0000   1.0000   1.0000   1.0000   1.0000   1.0000   1.0000   1.0000
     1.0000   1.0000   1.0000   1.0000   1.0000   1.0000   1.0000   1.0000
     1.0000   1.0000   0.0000   0.0000   0.0000   0.0000   0.0000   0.0000
     0.0000   0.0000   0.0000   0.0000   0.0000   0.0000   0.0000   0.0000
     0.0000   0.0000   0.0000   0.0000   0.0000   0.0000   0.0000   0.0000
     0.0000   0.0000

          k = 0.3667-0.2117 0.2583 (  2508 PWs)   bands (ev):

  -114.3168-114.3168 -68.6539 -68.6532 -68.6488 -68.6486 -68.6481 -68.6476
    -8.5269  -8.4298   2.6258   2.6881   3.4316   3.4773   3.5237   3.5444
     4.3918   4.4091   4.4453   4.5001   5.4306   5.6273   7.0865   7.3249
     7.6516   7.6623  13.8550  14.5324  17.4510  17.5647  19.8062  20.5677
    22.3459  22.5467  24.1768  25.6993  29.9610  30.4393  30.6480  31.5344
    34.1217  34.9252  35.5685  35.8106  37.8347  38.3114  39.8157  40.2958
    40.6246  41.9763

     occupation numbers 
     1.0000   1.0000   1.0000   1.0000   1.0000   1.0000   1.0000   1.0000
     1.0000   1.0000   1.0000   1.0000   1.0000   1.0000   1.0000   1.0000
     1.0000   1.0000   1.0000   1.0000   1.0000   1.0000   1.0000   1.0000
     1.0000   1.0000   0.0000   0.0000   0.0000   0.0000   0.0000   0.0000
     0.0000   0.0000   0.0000   0.0000   0.0000   0.0000   0.0000   0.0000
     0.0000   0.0000   0.0000   0.0000   0.0000   0.0000   0.0000   0.0000
     0.0000   0.0000

          k = 0.4333 0.7506 0.0517 (  2500 PWs)   bands (ev):

  -114.3167-114.3167 -68.6538 -68.6529 -68.6489 -68.6487 -68.6483 -68.6476
    -8.4797  -8.2953   2.8892   3.1567   3.2990   3.6109   3.7694   3.8937
     4.2904   4.3734   4.5505   4.5802   5.0790   5.3024   5.8345   6.4338
     7.3628   7.6921  14.9791  15.9560  16.3754  17.3853  19.2715  20.7918
    21.3345  22.4903  24.6344  27.9630  28.6390  29.7315  31.1113  33.3993
    34.4840  34.5887  35.9668  36.0256  36.7533  37.7628  38.9589  39.2318
    41.8568  43.3219

     occupation numbers 
     1.0000   1.0000   1.0000   1.0000   1.0000   1.0000   1.0000   1.0000
     1.0000   1.0000   1.0000   1.0000   1.0000   1.0000   1.0000   1.0000
     1.0000   1.0000   1.0000   1.0000   1.0000   1.0000   1.0000   1.0000
     1.0000   1.0000   0.0000   0.0000   0.0000   0.0000   0.0000   0.0000
     0.0000   0.0000   0.0000   0.0000   0.0000   0.0000   0.0000   0.0000
     0.0000   0.0000   0.0000   0.0000   0.0000   0.0000   0.0000   0.0000
     0.0000   0.0000

          k = 0.4333 0.7506 0.1550 (  2504 PWs)   bands (ev):

  -114.3168-114.3167 -68.6540 -68.6531 -68.6488 -68.6486 -68.6485 -68.6476
    -8.4509  -8.3156   2.8157   2.9525   3.3266   3.5895   3.7171   3.7815
     4.3660   4.3930   4.5760   4.6076   5.0151   5.2090   6.1928   6.7953
     7.3590   7.6550  14.7536  15.6731  16.7351  17.4657  18.9048  20.2754
    21.8793  22.8242  24.5488  27.1636  28.5621  30.3780  30.9645  32.3960
    34.5756  34.6780  35.6412  36.6373  37.7943  38.0775  39.6308  40.1921
    42.0478  43.0290

     occupation numbers 
     1.0000   1.0000   1.0000   1.0000   1.0000   1.0000   1.0000   1.0000
     1.0000   1.0000   1.0000   1.0000   1.0000   1.0000   1.0000   1.0000
     1.0000   1.0000   1.0000   1.0000   1.0000   1.0000   1.0000   1.0000
     1.0000   1.0000   0.0000   0.0000   0.0000   0.0000   0.0000   0.0000
     0.0000   0.0000   0.0000   0.0000   0.0000   0.0000   0.0000   0.0000
     0.0000   0.0000   0.0000   0.0000   0.0000   0.0000   0.0000   0.0000
     0.0000   0.0000

          k = 0.4333 0.7506 0.2583 (  2508 PWs)   bands (ev):

  -114.3168-114.3168 -68.6540 -68.6537 -68.6487 -68.6487 -68.6481 -68.6477
    -8.4038  -8.3542   2.7412   2.7764   3.4075   3.5205   3.6773   3.6856
     4.3992   4.4035   4.6273   4.6357   5.0156   5.0944   6.6239   7.0449
     7.3062   7.6321  14.7851  15.1830  17.0982  17.3785  18.9559  19.5386
    22.6831  23.0168  24.6810  25.6788  29.3974  30.5103  31.0357  31.2618
    34.8427  35.0463  35.5540  36.2439  38.1477  39.1112  40.5714  41.2637
    42.6592  42.7324

     occupation numbers 
     1.0000   1.0000   1.0000   1.0000   1.0000   1.0000   1.0000   1.0000
     1.0000   1.0000   1.0000   1.0000   1.0000   1.0000   1.0000   1.0000
     1.0000   1.0000   1.0000   1.0000   1.0000   1.0000   1.0000   1.0000
     1.0000   1.0000   0.0000   0.0000   0.0000   0.0000   0.0000   0.0000
     0.0000   0.0000   0.0000   0.0000   0.0000   0.0000   0.0000   0.0000
     0.0000   0.0000   0.0000   0.0000   0.0000   0.0000   0.0000   0.0000
     0.0000   0.0000

          k = 0.4333-0.3272 0.0517 (  2504 PWs)   bands (ev):

  -114.3168-114.3167 -68.6539 -68.6529 -68.6492 -68.6486 -68.6485 -68.6473
    -8.5173  -8.2932   2.8215   3.0309   3.3168   3.6496   3.7350   3.8580
     4.3007   4.4108   4.5259   4.6262   4.9963   5.3070   6.0227   6.5035
     7.5195   7.8848  14.5151  15.7366  16.3818  17.3696  19.3171  21.1446
    21.6134  22.8504  24.5540  27.4798  28.3034  29.3198  31.1577  33.8142
    34.2051  34.7007  35.9055  36.3243  36.9512  37.9333  39.4116  40.6187
    41.4512  42.3196

     occupation numbers 
     1.0000   1.0000   1.0000   1.0000   1.0000   1.0000   1.0000   1.0000
     1.0000   1.0000   1.0000   1.0000   1.0000   1.0000   1.0000   1.0000
     1.0000   1.0000   1.0000   1.0000   1.0000   1.0000   1.0000   1.0000
     1.0000   1.0000   0.0000   0.0000   0.0000   0.0000   0.0000   0.0000
     0.0000   0.0000   0.0000   0.0000   0.0000   0.0000   0.0000   0.0000
     0.0000   0.0000   0.0000   0.0000   0.0000   0.0000   0.0000   0.0000
     0.0000   0.0000

          k = 0.4333-0.3272 0.1550 (  2499 PWs)   bands (ev):

  -114.3168-114.3166 -68.6541 -68.6527 -68.6487 -68.6484 -68.6484 -68.6474
    -8.4834  -8.3191   2.7391   2.8553   3.3653   3.6074   3.6823   3.7606
     4.3839   4.4260   4.5140   4.6220   4.9716   5.2412   6.4673   6.7575
     7.6084   7.7448  14.3112  15.3579  16.7686  17.4272  19.1862  21.0115
    21.8674  22.8362  23.9296  27.1436  29.1537  29.9752  30.3336  33.3885
    33.8278  34.9963  35.8085  36.0122  37.9388  38.2771  39.9448  40.8898
    41.7171  42.4834

     occupation numbers 
     1.0000   1.0000   1.0000   1.0000   1.0000   1.0000   1.0000   1.0000
     1.0000   1.0000   1.0000   1.0000   1.0000   1.0000   1.0000   1.0000
     1.0000   1.0000   1.0000   1.0000   1.0000   1.0000   1.0000   1.0000
     1.0000   1.0000   0.0000   0.0000   0.0000   0.0000   0.0000   0.0000
     0.0000   0.0000   0.0000   0.0000   0.0000   0.0000   0.0000   0.0000
     0.0000   0.0000   0.0000   0.0000   0.0000   0.0000   0.0000   0.0000
     0.0000   0.0000

          k = 0.4333-0.3272 0.2583 (  2502 PWs)   bands (ev):

  -114.3168-114.3167 -68.6539 -68.6533 -68.6487 -68.6485 -68.6481 -68.6477
    -8.4274  -8.3671   2.6619   2.6937   3.4614   3.5686   3.6346   3.6423
     4.4311   4.4411   4.5370   4.5893   5.0248   5.1280   6.9516   7.2329
     7.3556   7.6297  14.3670  14.8068  17.1180  17.3547  19.4579  20.2180
    22.4212  22.7050  24.2941  25.6934  30.1850  30.3149  30.9040  31.8503
    34.2524  35.0830  35.3195  35.5385  38.6003  39.2304  40.5868  41.4156
    42.0357  42.2414

     occupation numbers 
     1.0000   1.0000   1.0000   1.0000   1.0000   1.0000   1.0000   1.0000
     1.0000   1.0000   1.0000   1.0000   1.0000   1.0000   1.0000   1.0000
     1.0000   1.0000   1.0000   1.0000   1.0000   1.0000   1.0000   1.0000
     1.0000   1.0000   0.0000   0.0000   0.0000   0.0000   0.0000   0.0000
     0.0000   0.0000   0.0000   0.0000   0.0000   0.0000   0.0000   0.0000
     0.0000   0.0000   0.0000   0.0000   0.0000   0.0000   0.0000   0.0000
     0.0000   0.0000

          k = 0.4333-0.2502 0.0517 (  2506 PWs)   bands (ev):

  -114.3169-114.3167 -68.6539 -68.6528 -68.6489 -68.6488 -68.6485 -68.6473
    -8.5582  -8.2928   2.7733   3.0111   3.3216   3.6316   3.7396   3.8190
     4.2895   4.4149   4.5162   4.6856   4.9055   5.3660   6.0858   6.6322
     7.6295   7.9909  14.1218  15.8016  16.4335  17.3682  19.3855  21.1080
    22.0242  22.9666  24.3562  27.2881  28.2144  29.0280  31.2276  33.5586
    34.5486  34.9208  35.8202  36.4056  37.1772  37.9687  39.2294  40.7269
    40.7348  41.2372

     occupation numbers 
     1.0000   1.0000   1.0000   1.0000   1.0000   1.0000   1.0000   1.0000
     1.0000   1.0000   1.0000   1.0000   1.0000   1.0000   1.0000   1.0000
     1.0000   1.0000   1.0000   1.0000   1.0000   1.0000   1.0000   1.0000
     1.0000   1.0000   0.0000   0.0000   0.0000   0.0000   0.0000   0.0000
     0.0000   0.0000   0.0000   0.0000   0.0000   0.0000   0.0000   0.0000
     0.0000   0.0000   0.0000   0.0000   0.0000   0.0000   0.0000   0.0000
     0.0000   0.0000

          k = 0.4333-0.2502 0.1550 (  2508 PWs)   bands (ev):

  -114.3169-114.3167 -68.6542 -68.6529 -68.6490 -68.6486 -68.6483 -68.6475
    -8.5192  -8.3246   2.6958   2.8387   3.3740   3.5843   3.6654   3.7349
     4.3658   4.4230   4.4920   4.6255   4.9769   5.3734   6.5041   6.8371
     7.7283   7.8224  14.0073  15.2836  16.8558  17.4209  19.3339  21.2473
    22.1341  22.8244  23.4669  27.1149  29.5969  29.7136  29.9284  33.5606
    33.9190  35.2519  35.3918  36.0948  37.7951  38.4114  39.7401  40.6082
    41.3410  42.2029

     occupation numbers 
     1.0000   1.0000   1.0000   1.0000   1.0000   1.0000   1.0000   1.0000
     1.0000   1.0000   1.0000   1.0000   1.0000   1.0000   1.0000   1.0000
     1.0000   1.0000   1.0000   1.0000   1.0000   1.0000   1.0000   1.0000
     1.0000   1.0000   0.0000   0.0000   0.0000   0.0000   0.0000   0.0000
     0.0000   0.0000   0.0000   0.0000   0.0000   0.0000   0.0000   0.0000
     0.0000   0.0000   0.0000   0.0000   0.0000   0.0000   0.0000   0.0000
     0.0000   0.0000

          k = 0.4333-0.2502 0.2583 (  2500 PWs)   bands (ev):

  -114.3167-114.3167 -68.6538 -68.6533 -68.6488 -68.6486 -68.6480 -68.6475
    -8.4539  -8.3825   2.6290   2.6714   3.4733   3.5696   3.6004   3.6042
     4.4393   4.4592   4.4630   4.5465   5.1079   5.2541   7.1414   7.1674
     7.5250   7.6138  14.1455  14.6522  17.1850  17.3804  19.6769  20.5286
    22.3370  22.5897  24.0939  25.6726  30.1860  30.5873  30.6829  32.1882
    33.8329  34.7983  35.3662  35.6799  38.5725  39.1903  40.7486  40.8170
    41.5801  41.7894

     occupation numbers 
     1.0000   1.0000   1.0000   1.0000   1.0000   1.0000   1.0000   1.0000
     1.0000   1.0000   1.0000   1.0000   1.0000   1.0000   1.0000   1.0000
     1.0000   1.0000   1.0000   1.0000   1.0000   1.0000   1.0000   1.0000
     1.0000   1.0000   0.0000   0.0000   0.0000   0.0000   0.0000   0.0000
     0.0000   0.0000   0.0000   0.0000   0.0000   0.0000   0.0000   0.0000
     0.0000   0.0000   0.0000   0.0000   0.0000   0.0000   0.0000   0.0000
     0.0000   0.0000

          k =-0.5000-0.8660 0.0517 (  2508 PWs)   bands (ev):

  -114.3169-114.3167 -68.6539 -68.6527 -68.6493 -68.6487 -68.6487 -68.6475
    -8.5155  -8.2942   2.8086   2.9790   3.3281   3.6855   3.7151   3.8526
     4.3120   4.4363   4.5194   4.5993   5.0525   5.2194   6.0378   6.5591
     7.5319   7.9494  14.5033  15.5221  16.3526  17.3577  19.3018  21.1654
    21.9765  23.0037  24.3414  27.3161  28.1452  29.3915  31.1396  33.6408
    34.2349  34.8125  35.8951  36.4093  37.1550  38.0156  39.8318  41.4745
    41.9404  42.0928

     occupation numbers 
     1.0000   1.0000   1.0000   1.0000   1.0000   1.0000   1.0000   1.0000
     1.0000   1.0000   1.0000   1.0000   1.0000   1.0000   1.0000   1.0000
     1.0000   1.0000   1.0000   1.0000   1.0000   1.0000   1.0000   1.0000
     1.0000   1.0000   0.0000   0.0000   0.0000   0.0000   0.0000   0.0000
     0.0000   0.0000   0.0000   0.0000   0.0000   0.0000   0.0000   0.0000
     0.0000   0.0000   0.0000   0.0000   0.0000   0.0000   0.0000   0.0000
     0.0000   0.0000

          k =-0.5000-0.8660 0.1550 (  2494 PWs)   bands (ev):

  -114.3167-114.3166 -68.6540 -68.6528 -68.6484 -68.6483 -68.6481 -68.6472
    -8.4819  -8.3196   2.7218   2.8127   3.3831   3.6336   3.6714   3.7635
     4.4167   4.4416   4.4958   4.5956   5.0005   5.1441   6.5436   6.7710
     7.6586   7.7781  14.2383  15.2073  16.7293  17.4101  19.2455  21.2739
    22.1030  22.8544  23.4531  27.1603  29.7193  29.7698  29.9471  33.4039
    34.1688  35.0745  35.2922  36.0251  38.0975  38.3172  40.1304  41.6242
    41.7341  41.9291

     occupation numbers 
     1.0000   1.0000   1.0000   1.0000   1.0000   1.0000   1.0000   1.0000
     1.0000   1.0000   1.0000   1.0000   1.0000   1.0000   1.0000   1.0000
     1.0000   1.0000   1.0000   1.0000   1.0000   1.0000   1.0000   1.0000
     1.0000   1.0000   0.0000   0.0000   0.0000   0.0000   0.0000   0.0000
     0.0000   0.0000   0.0000   0.0000   0.0000   0.0000   0.0000   0.0000
     0.0000   0.0000   0.0000   0.0000   0.0000   0.0000   0.0000   0.0000
     0.0000   0.0000

          k =-0.5000-0.8660 0.2583 (  2496 PWs)   bands (ev):

  -114.3167-114.3166 -68.6539 -68.6532 -68.6487 -68.6483 -68.6479 -68.6475
    -8.4265  -8.3670   2.6383   2.6610   3.4874   3.6119   3.6252   3.6276
     4.4526   4.4705   4.5148   4.5732   5.0013   5.0572   7.1102   7.1710
     7.4753   7.5961  14.2569  14.6793  17.0873  17.3288  19.6214  20.5071
    22.3298  22.6046  24.0944  25.6889  30.0866  30.5694  31.0113  32.4908
    33.6860  34.6959  35.1962  35.5513  38.8369  39.3218  40.8344  41.5088
    42.0184  42.0316

     occupation numbers 
     1.0000   1.0000   1.0000   1.0000   1.0000   1.0000   1.0000   1.0000
     1.0000   1.0000   1.0000   1.0000   1.0000   1.0000   1.0000   1.0000
     1.0000   1.0000   1.0000   1.0000   1.0000   1.0000   1.0000   1.0000
     1.0000   1.0000   0.0000   0.0000   0.0000   0.0000   0.0000   0.0000
     0.0000   0.0000   0.0000   0.0000   0.0000   0.0000   0.0000   0.0000
     0.0000   0.0000   0.0000   0.0000   0.0000   0.0000   0.0000   0.0000
     0.0000   0.0000

     highest occupied, lowest unoccupied level (ev):     8.7961    9.8606

     Writing all to output data dir ./TMP/zno.save/ :
     XML data file, pseudopotentials, collected wavefunctions

     init_run     :      0.73s CPU      0.91s WALL (       1 calls)
     electrons    :    108.50s CPU    114.48s WALL (       1 calls)

     Called by init_run:
     wfcinit      :      0.00s CPU      0.00s WALL (       1 calls)
     wfcinit:atom :      0.01s CPU      0.01s WALL (      48 calls)
     wfcinit:wfcr :      0.90s CPU      0.97s WALL (      48 calls)
     potinit      :      0.05s CPU      0.11s WALL (       1 calls)
     hinit0       :      0.49s CPU      0.59s WALL (       1 calls)

     Called by electrons:
     c_bands      :    108.49s CPU    114.45s WALL (       1 calls)
     v_of_rho     :      0.04s CPU      0.04s WALL (       1 calls)
     v_h          :      0.00s CPU      0.00s WALL (       1 calls)
     v_xc         :      0.04s CPU      0.04s WALL (       1 calls)
     newd         :      0.03s CPU      0.04s WALL (       1 calls)

     Called by c_bands:
     init_us_2    :      0.01s CPU      0.01s WALL (      48 calls)
     ccgdiagg     :    101.00s CPU    106.56s WALL (     288 calls)
     wfcrot       :      5.20s CPU      5.50s WALL (     288 calls)

     Called by sum_band:

     Called by *cgdiagg:
     h_psi        :     68.02s CPU     71.88s WALL (  181345 calls)
     s_psi        :      4.20s CPU      4.51s WALL (  362402 calls)

     Called by h_psi:
     h_psi:calbec :      6.35s CPU      6.71s WALL (  181345 calls)
     vloc_psi     :     56.01s CPU     59.20s WALL (  181345 calls)
     add_vuspsi   :      4.85s CPU      5.18s WALL (  181345 calls)
     hs_1psi      :     66.47s CPU     70.18s WALL (  181057 calls)
     s_1psi       :      7.05s CPU      7.42s WALL (  181057 calls)

     General routines
     calbec       :     10.45s CPU     11.10s WALL (  362402 calls)
     fft          :      0.08s CPU      0.14s WALL (      13 calls)
     ffts         :      0.01s CPU      0.01s WALL (       1 calls)
     fftw         :     49.81s CPU     52.60s WALL (  390914 calls)
     interpolate  :      0.01s CPU      0.01s WALL (       1 calls)
     davcio       :      0.01s CPU      0.11s WALL (      96 calls)

     Parallel routines

     PWSCF        :   1m49.86s CPU   1m58.48s WALL


   This run was terminated on:  20:42:15  26Mar2024            

=------------------------------------------------------------------------------=
   JOB DONE.
=------------------------------------------------------------------------------=
