
     Program PWSCF v.7.3.1 starts on 26Mar2024 at 20:36:48 

     This program is part of the open-source Quantum ESPRESSO suite
     for quantum simulation of materials; please cite
         "P. Giannozzi et al., J. Phys.:Condens. Matter 21 395502 (2009);
         "P. Giannozzi et al., J. Phys.:Condens. Matter 29 465901 (2017);
         "P. Giannozzi et al., J. Chem. Phys. 152 154105 (2020);
          URL http://www.quantum-espresso.org", 
     in publications or presentations arising from this work. More details at
     http://www.quantum-espresso.org/quote

     Parallel version (MPI & OpenMP), running on       4 processor cores
     Number of MPI processes:                 4
     Threads/MPI process:                     1

     MPI processes distributed on     1 nodes
     150380 MiB available memory on the printing compute node when the environment starts

     Reading input from nscf.pwi

     Current dimensions of program PWSCF are:
     Max number of different atomic species (ntypx) = 10
     Max number of k-points (npk) =  40000
     Max angular momentum in pseudopotentials (lmaxx) =  4
     file Zn.pbesol-spn-rrkjus_gipaw.1.0.0.UPF: wavefunction(s)  3P renormalized

     Atomic positions and unit cell read from directory:
     ./TMP/zno.save/


     K-points division:     npool     =       2
     R & G space division:  proc/nbgrp/npool/nimage =       2
     Subspace diagonalization in iterative solution of the eigenvalue problem:
     a serial algorithm will be used


     Parallelization info
     --------------------
     sticks:   dense  smooth     PW     G-vecs:    dense   smooth      PW
     Min         765     306     99                39679    10038    1849
     Max         766     307    100                39688    10039    1856
     Sum        1531     613    199                79367    20077    3705

     Using Slab Decomposition



     bravais-lattice index     =            4
     lattice parameter (alat)  =       6.1177  a.u.
     unit-cell volume          =     319.8518 (a.u.)^3
     number of atoms/cell      =            4
     number of atomic types    =            2
     number of electrons       =        52.00
     number of Kohn-Sham states=           50
     kinetic-energy cutoff     =      60.0000  Ry
     charge density cutoff     =     600.0000  Ry
     Exchange-correlation= PBESOL
                           (   1   4  10   8   0   0   0)

     celldm(1)=   6.117707  celldm(2)=   0.000000  celldm(3)=   1.613066
     celldm(4)=   0.000000  celldm(5)=   0.000000  celldm(6)=   0.000000

     crystal axes: (cart. coord. in units of alat)
               a(1) = (   1.000000   0.000000   0.000000 )  
               a(2) = (  -0.500000   0.866025   0.000000 )  
               a(3) = (   0.000000   0.000000   1.613066 )  

     reciprocal axes: (cart. coord. in units 2 pi/alat)
               b(1) = (  1.000000  0.577350 -0.000000 )  
               b(2) = (  0.000000  1.154701  0.000000 )  
               b(3) = (  0.000000 -0.000000  0.619937 )  


     PseudoPot. # 1 for Zn read from file:
     /work4/dls/shared/pslibrary_pbesol/Zn.pbesol-spn-rrkjus_gipaw.1.0.0.UPF
     MD5 check sum: b4e9e16921b23c2f86f37449a7d7d891
     Pseudo is Ultrasoft + core correction, Zval = 20.0
     Generated using 'atomic' code by A. Dal Corso  v.7.0
     Using radial grid of 1201 points,  6 beta functions with: 
                l(1) =   0
                l(2) =   0
                l(3) =   1
                l(4) =   1
                l(5) =   2
                l(6) =   2
     Q(r) pseudized with 0 coefficients 


     PseudoPot. # 2 for O  read from file:
     /work4/dls/shared/pslibrary_pbesol/O.pbesol-n-rrkjus_gipaw.1.0.0.UPF
     MD5 check sum: 2ea9f908f11928dd1b1a171180989522
     Pseudo is Ultrasoft + core correction, Zval =  6.0
     Generated using 'atomic' code by A. Dal Corso  v.7.0
     Using radial grid of 1095 points,  4 beta functions with: 
                l(1) =   0
                l(2) =   0
                l(3) =   1
                l(4) =   1
     Q(r) pseudized with 0 coefficients 


     atomic species   valence    mass     pseudopotential
     Zn               20.00    65.38000     Zn( 1.00)
     O                 6.00    15.99900     O ( 1.00)

     12 Sym. Ops. (no inversion) found ( 6 have fractional translation)


                                    s                        frac. trans.

      isym =  1     identity                                     

 cryst.   s( 1) = (     1          0          0      )
                  (     0          1          0      )
                  (     0          0          1      )

 cart.    s( 1) = (  1.0000000  0.0000000  0.0000000 )
                  (  0.0000000  1.0000000  0.0000000 )
                  (  0.0000000  0.0000000  1.0000000 )


      isym =  2     180 deg rotation - cart. axis [0,0,1]        

 cryst.   s( 2) = (    -1          0          0      )    f =(  0.0000000 )
                  (     0         -1          0      )       (  0.0000000 )
                  (     0          0          1      )       ( -0.5000000 )

 cart.    s( 2) = ( -1.0000000 -0.0000000  0.0000000 )    f =(  0.0000000 )
                  (  0.0000000 -1.0000000  0.0000000 )       (  0.0000000 )
                  (  0.0000000  0.0000000  1.0000000 )       ( -0.8065331 )


      isym =  3      60 deg rotation - cryst. axis [0,0,1]       

 cryst.   s( 3) = (     1          1          0      )    f =(  0.0000000 )
                  (    -1          0          0      )       ( -0.0000000 )
                  (     0          0          1      )       ( -0.5000000 )

 cart.    s( 3) = (  0.5000000 -0.8660254  0.0000000 )    f =(  0.0000000 )
                  (  0.8660254  0.5000000  0.0000000 )       ( -0.0000000 )
                  (  0.0000000  0.0000000  1.0000000 )       ( -0.8065331 )


      isym =  4      60 deg rotation - cryst. axis [0,0,-1]      

 cryst.   s( 4) = (     0         -1          0      )    f =(  0.0000000 )
                  (     1          1          0      )       (  0.0000000 )
                  (     0          0          1      )       ( -0.5000000 )

 cart.    s( 4) = (  0.5000000  0.8660254  0.0000000 )    f =(  0.0000000 )
                  ( -0.8660254  0.5000000  0.0000000 )       (  0.0000000 )
                  (  0.0000000  0.0000000  1.0000000 )       ( -0.8065331 )


      isym =  5     120 deg rotation - cryst. axis [0,0,1]       

 cryst.   s( 5) = (     0          1          0      )
                  (    -1         -1          0      )
                  (     0          0          1      )

 cart.    s( 5) = ( -0.5000000 -0.8660254  0.0000000 )
                  (  0.8660254 -0.5000000  0.0000000 )
                  (  0.0000000  0.0000000  1.0000000 )


      isym =  6     120 deg rotation - cryst. axis [0,0,-1]      

 cryst.   s( 6) = (    -1         -1          0      )
                  (     1          0          0      )
                  (     0          0          1      )

 cart.    s( 6) = ( -0.5000000  0.8660254  0.0000000 )
                  ( -0.8660254 -0.5000000  0.0000000 )
                  (  0.0000000  0.0000000  1.0000000 )


      isym =  7     inv. 180 deg rotation - cart. axis [0,1,0]   

 cryst.   s( 7) = (     1          0          0      )    f =(  0.0000000 )
                  (    -1         -1          0      )       (  0.0000000 )
                  (     0          0          1      )       ( -0.5000000 )

 cart.    s( 7) = (  1.0000000 -0.0000000  0.0000000 )    f =(  0.0000000 )
                  (  0.0000000 -1.0000000  0.0000000 )       (  0.0000000 )
                  (  0.0000000  0.0000000  1.0000000 )       ( -0.8065331 )


      isym =  8     inv. 180 deg rotation - cart. axis [1,0,0]   

 cryst.   s( 8) = (    -1          0          0      )
                  (     1          1          0      )
                  (     0          0          1      )

 cart.    s( 8) = ( -1.0000000  0.0000000  0.0000000 )
                  (  0.0000000  1.0000000  0.0000000 )
                  (  0.0000000  0.0000000  1.0000000 )


      isym =  9     inv. 180 deg rotation - cryst. axis [1,-1,0] 

 cryst.   s( 9) = (     0          1          0      )    f =(  0.0000000 )
                  (     1          0          0      )       ( -0.0000000 )
                  (     0          0          1      )       ( -0.5000000 )

 cart.    s( 9) = ( -0.5000000  0.8660254  0.0000000 )    f =(  0.0000000 )
                  (  0.8660254  0.5000000  0.0000000 )       ( -0.0000000 )
                  (  0.0000000  0.0000000  1.0000000 )       ( -0.8065331 )


      isym = 10     inv. 180 deg rotation - cryst. axis [2,1,0]  

 cryst.   s(10) = (    -1         -1          0      )    f =(  0.0000000 )
                  (     0          1          0      )       (  0.0000000 )
                  (     0          0          1      )       ( -0.5000000 )

 cart.    s(10) = ( -0.5000000 -0.8660254  0.0000000 )    f =(  0.0000000 )
                  ( -0.8660254  0.5000000  0.0000000 )       (  0.0000000 )
                  (  0.0000000  0.0000000  1.0000000 )       ( -0.8065331 )


      isym = 11     inv. 180 deg rotation - cryst. axis [0,1,0]  

 cryst.   s(11) = (     1          1          0      )
                  (     0         -1          0      )
                  (     0          0          1      )

 cart.    s(11) = (  0.5000000  0.8660254  0.0000000 )
                  (  0.8660254 -0.5000000  0.0000000 )
                  (  0.0000000  0.0000000  1.0000000 )


      isym = 12     inv. 180 deg rotation - cryst. axis [1,1,0]  

 cryst.   s(12) = (     0         -1          0      )
                  (    -1          0          0      )
                  (     0          0          1      )

 cart.    s(12) = (  0.5000000 -0.8660254  0.0000000 )
                  ( -0.8660254 -0.5000000  0.0000000 )
                  (  0.0000000  0.0000000  1.0000000 )


     point group C_6v (6mm) 
     there are  6 classes
     the character table:

       E     2C6   2C3   C2    3s_v  3s_d 
A_1    1.00  1.00  1.00  1.00  1.00  1.00
A_2    1.00  1.00  1.00  1.00 -1.00 -1.00
B_1    1.00 -1.00  1.00 -1.00  1.00 -1.00
B_2    1.00 -1.00  1.00 -1.00 -1.00  1.00
E_1    2.00  1.00 -1.00 -2.00  0.00  0.00
E_2    2.00 -1.00 -1.00  2.00  0.00  0.00

     the symmetry operations in each class and the name of the first element:

     E        1
          identity                                               
     2C6      3    4
           60 deg rotation - cryst. axis [0,0,1]                 
     2C3      5    6
          120 deg rotation - cryst. axis [0,0,1]                 
     C2       2
          180 deg rotation - cart. axis [0,0,1]                  
     3s_v     8   12   11
          inv. 180 deg rotation - cart. axis [1,0,0]             
     3s_d     7    9   10
          inv. 180 deg rotation - cart. axis [0,1,0]             

   Cartesian axes

     site n.     atom                  positions (alat units)
         1        Zn     tau(   1) = (  -0.0000000   0.5773503   0.0009545  )
         2        Zn     tau(   2) = (   0.5000000   0.2886751   0.8074875  )
         3        O      tau(   3) = (  -0.0000000   0.5773503   0.6125107  )
         4        O      tau(   4) = (   0.5000000   0.2886751   1.4190438  )

   Crystallographic axes

     site n.     atom                  positions (cryst. coord.)
         1        Zn     tau(   1) = (  0.3333333  0.6666667  0.0005917  )
         2        Zn     tau(   2) = (  0.6666667  0.3333333  0.5005917  )
         3        O      tau(   3) = (  0.3333333  0.6666667  0.3797183  )
         4        O      tau(   4) = (  0.6666667  0.3333333  0.8797183  )

     number of k points=    18
                       cart. coord. in units 2pi/alat
        k(    1) = (   0.1000000   0.1732051   0.1033229), wk =   0.1066667
        k(    2) = (   0.1000000   0.1732051  -0.3099687), wk =   0.0533333
        k(    3) = (   0.1000000   0.4041452   0.1033229), wk =   0.2133333
        k(    4) = (   0.1000000   0.4041452  -0.3099687), wk =   0.1066667
        k(    5) = (   0.1000000  -0.5196152   0.1033229), wk =   0.2133333
        k(    6) = (   0.1000000  -0.5196152  -0.3099687), wk =   0.1066667
        k(    7) = (   0.1000000  -0.2886751   0.1033229), wk =   0.2133333
        k(    8) = (   0.1000000  -0.2886751  -0.3099687), wk =   0.1066667
        k(    9) = (   0.1000000  -0.0577350   0.1033229), wk =   0.1066667
        k(   10) = (   0.1000000  -0.0577350  -0.3099687), wk =   0.0533333
        k(   11) = (   0.3000000   0.5196152   0.1033229), wk =   0.1066667
        k(   12) = (   0.3000000   0.5196152  -0.3099687), wk =   0.0533333
        k(   13) = (   0.3000000  -0.4041452   0.1033229), wk =   0.2133333
        k(   14) = (   0.3000000  -0.4041452  -0.3099687), wk =   0.1066667
        k(   15) = (   0.3000000  -0.1732051   0.1033229), wk =   0.1066667
        k(   16) = (   0.3000000  -0.1732051  -0.3099687), wk =   0.0533333
        k(   17) = (  -0.5000000  -0.8660254   0.1033229), wk =   0.0533333
        k(   18) = (  -0.5000000  -0.8660254  -0.3099687), wk =   0.0266667

                       cryst. coord.
        k(    1) = (   0.1000000   0.1000000   0.1666667), wk =   0.1066667
        k(    2) = (   0.1000000   0.1000000  -0.5000000), wk =   0.0533333
        k(    3) = (   0.1000000   0.3000000   0.1666667), wk =   0.2133333
        k(    4) = (   0.1000000   0.3000000  -0.5000000), wk =   0.1066667
        k(    5) = (   0.1000000  -0.5000000   0.1666667), wk =   0.2133333
        k(    6) = (   0.1000000  -0.5000000  -0.5000000), wk =   0.1066667
        k(    7) = (   0.1000000  -0.3000000   0.1666667), wk =   0.2133333
        k(    8) = (   0.1000000  -0.3000000  -0.5000000), wk =   0.1066667
        k(    9) = (   0.1000000  -0.1000000   0.1666667), wk =   0.1066667
        k(   10) = (   0.1000000  -0.1000000  -0.5000000), wk =   0.0533333
        k(   11) = (   0.3000000   0.3000000   0.1666667), wk =   0.1066667
        k(   12) = (   0.3000000   0.3000000  -0.5000000), wk =   0.0533333
        k(   13) = (   0.3000000  -0.5000000   0.1666667), wk =   0.2133333
        k(   14) = (   0.3000000  -0.5000000  -0.5000000), wk =   0.1066667
        k(   15) = (   0.3000000  -0.3000000   0.1666667), wk =   0.1066667
        k(   16) = (   0.3000000  -0.3000000  -0.5000000), wk =   0.0533333
        k(   17) = (  -0.5000000  -0.5000000   0.1666667), wk =   0.0533333
        k(   18) = (  -0.5000000  -0.5000000  -0.5000000), wk =   0.0266667

     Dense  grid:    79367 G-vectors     FFT dimensions: (  48,  48,  80)

     Smooth grid:    20077 G-vectors     FFT dimensions: (  32,  32,  50)

     Dynamical RAM for                 wfc:       0.96 MB

     Dynamical RAM for     wfc (w. buffer):       0.96 MB

     Dynamical RAM for           str. fact:       1.21 MB

     Dynamical RAM for           local pot:       0.00 MB

     Dynamical RAM for          nlocal pot:       1.00 MB

     Dynamical RAM for                qrad:       3.93 MB

     Dynamical RAM for          rho,v,vnew:       3.93 MB

     Dynamical RAM for           G-vectors:       2.35 MB

     Dynamical RAM for          h,s,v(r/c):       0.11 MB

     Dynamical RAM for          <psi|beta>:       0.04 MB

     Dynamical RAM for      wfcinit/wfcrot:       1.97 MB

     Dynamical RAM for           addusdens:      57.23 MB

     Estimated static dynamical RAM per process >      18.70 MB

     Estimated max dynamical RAM per process >      75.93 MB

     Estimated total dynamical RAM >     303.72 MB

     The potential is recalculated from file :
     ./TMP/zno.save/charge-density

     Starting wfcs are   28 atomic +   22 random wfcs

     Band Structure Calculation
     CG style diagonalization

     Computing kpt #:     1  of     9 on this pool
     c_bands:  2 eigenvalues not converged
     total cpu time spent up to now is        4.2 secs

     Computing kpt #:     2  of     9 on this pool
     c_bands:  2 eigenvalues not converged
     total cpu time spent up to now is        7.3 secs

     Computing kpt #:     3  of     9 on this pool
     c_bands:  1 eigenvalues not converged
     total cpu time spent up to now is       10.4 secs

     Computing kpt #:     4  of     9 on this pool
     c_bands:  2 eigenvalues not converged
     total cpu time spent up to now is       13.5 secs

     Computing kpt #:     5  of     9 on this pool
     c_bands:  3 eigenvalues not converged
     total cpu time spent up to now is       16.6 secs

     Computing kpt #:     6  of     9 on this pool
     c_bands:  4 eigenvalues not converged
     total cpu time spent up to now is       19.7 secs

     Computing kpt #:     7  of     9 on this pool
     c_bands:  2 eigenvalues not converged
     total cpu time spent up to now is       22.8 secs

     Computing kpt #:     8  of     9 on this pool
     c_bands:  1 eigenvalues not converged
     total cpu time spent up to now is       25.8 secs

     Computing kpt #:     9  of     9 on this pool
     total cpu time spent up to now is       28.8 secs

     ethr =  1.92E-12,  avg # of iterations = 83.3

     total cpu time spent up to now is       28.8 secs

     End of band structure calculation

          k = 0.1000 0.1732 0.1033 (  2520 PWs)   bands (ev):

  -114.3173-114.3168 -68.6545 -68.6522 -68.6482 -68.6481 -68.6472 -68.6469
    -9.0269  -8.4595   2.8876   3.0184   3.1834   3.1850   3.3356   3.3740
     4.2301   4.2744   4.4740   4.5271   5.1130   7.2025   7.3246   7.7581
     8.4551   8.5120  11.3859  14.7633  17.1564  19.6065  21.0933  21.6696
    21.9329  23.1253  25.1600  25.3141  28.7567  29.0970  30.8961  31.0377
    31.8813  32.3695  33.8637  35.2663  35.6584  36.5916  37.3382  38.1633
    39.3510  39.6248

     occupation numbers 
     1.0000   1.0000   1.0000   1.0000   1.0000   1.0000   1.0000   1.0000
     1.0000   1.0000   1.0000   1.0000   1.0000   1.0000   1.0000   1.0000
     1.0000   1.0000   1.0000   1.0000   1.0000   1.0000   1.0000   1.0000
     1.0000   1.0000   0.0000   0.0000   0.0000   0.0000   0.0000   0.0000
     0.0000   0.0000   0.0000   0.0000   0.0000   0.0000   0.0000   0.0000
     0.0000   0.0000   0.0000   0.0000   0.0000   0.0000   0.0000   0.0000
     0.0000   0.0000

          k = 0.1000 0.1732-0.3100 (  2512 PWs)   bands (ev):

  -114.3170-114.3170 -68.6537 -68.6537 -68.6476 -68.6476 -68.6472 -68.6472
    -8.7474  -8.7474   2.7575   2.7575   3.2003   3.2003   3.2675   3.2675
     4.3847   4.3847   4.3931   4.3931   6.4855   6.4855   7.7808   7.7808
     8.0981   8.0981  13.0108  13.0108  18.6573  18.6573  20.6255  20.6255
    22.1249  22.1249  26.7684  26.7684  28.4041  28.4041  31.0677  31.0677
    32.2157  32.2157  34.2492  34.2492  36.3465  36.3465  38.6997  38.6997
    39.8654  39.8654

     occupation numbers 
     1.0000   1.0000   1.0000   1.0000   1.0000   1.0000   1.0000   1.0000
     1.0000   1.0000   1.0000   1.0000   1.0000   1.0000   1.0000   1.0000
     1.0000   1.0000   1.0000   1.0000   1.0000   1.0000   1.0000   1.0000
     1.0000   1.0000   0.0000   0.0000   0.0000   0.0000   0.0000   0.0000
     0.0000   0.0000   0.0000   0.0000   0.0000   0.0000   0.0000   0.0000
     0.0000   0.0000   0.0000   0.0000   0.0000   0.0000   0.0000   0.0000
     0.0000   0.0000

          k = 0.1000 0.4041 0.1033 (  2513 PWs)   bands (ev):

  -114.3170-114.3167 -68.6541 -68.6528 -68.6490 -68.6487 -68.6483 -68.6475
    -8.6518  -8.3211   2.7627   3.0168   3.2894   3.4676   3.6767   3.6991
     4.2091   4.3642   4.5005   4.6494   5.1434   5.7480   6.3641   6.7279
     7.8751   7.9568  13.5099  15.8859  17.1567  17.5264  19.6476  20.8172
    21.3541  23.1630  24.4210  26.7505  28.4334  30.0607  30.9794  32.8645
    34.1519  34.7863  35.6451  36.1976  36.8406  37.7959  38.3794  38.7603
    40.3438  41.5304

     occupation numbers 
     1.0000   1.0000   1.0000   1.0000   1.0000   1.0000   1.0000   1.0000
     1.0000   1.0000   1.0000   1.0000   1.0000   1.0000   1.0000   1.0000
     1.0000   1.0000   1.0000   1.0000   1.0000   1.0000   1.0000   1.0000
     1.0000   1.0000   0.0000   0.0000   0.0000   0.0000   0.0000   0.0000
     0.0000   0.0000   0.0000   0.0000   0.0000   0.0000   0.0000   0.0000
     0.0000   0.0000   0.0000   0.0000   0.0000   0.0000   0.0000   0.0000
     0.0000   0.0000

          k = 0.1000 0.4041-0.3100 (  2510 PWs)   bands (ev):

  -114.3169-114.3169 -68.6538 -68.6538 -68.6487 -68.6487 -68.6477 -68.6477
    -8.4822  -8.4822   2.6844   2.6844   3.4051   3.4051   3.5228   3.5228
     4.4082   4.4082   4.4704   4.4704   5.6302   5.6302   7.2427   7.2427
     7.5034   7.5034  14.3119  14.3119  17.6440  17.6440  19.7981  19.7981
    22.4576  22.4576  25.2969  25.2969  29.4699  29.4699  31.4883  31.4883
    34.8478  34.8478  35.4036  35.4036  38.4686  38.4686  39.5539  39.5539
    41.0254  41.0254

     occupation numbers 
     1.0000   1.0000   1.0000   1.0000   1.0000   1.0000   1.0000   1.0000
     1.0000   1.0000   1.0000   1.0000   1.0000   1.0000   1.0000   1.0000
     1.0000   1.0000   1.0000   1.0000   1.0000   1.0000   1.0000   1.0000
     1.0000   1.0000   0.0000   0.0000   0.0000   0.0000   0.0000   0.0000
     0.0000   0.0000   0.0000   0.0000   0.0000   0.0000   0.0000   0.0000
     0.0000   0.0000   0.0000   0.0000   0.0000   0.0000   0.0000   0.0000
     0.0000   0.0000

          k = 0.1000-0.5196 0.1033 (  2498 PWs)   bands (ev):

  -114.3168-114.3166 -68.6538 -68.6528 -68.6489 -68.6485 -68.6483 -68.6474
    -8.5060  -8.3022   2.8089   3.0030   3.3201   3.5974   3.7262   3.8174
     4.3149   4.4008   4.5256   4.6595   4.9509   5.3700   6.1598   6.5532
     7.5536   7.7629  14.4593  15.7569  16.6281  17.4179  19.2184  20.9592
    21.4361  22.8228  24.4505  27.4549  28.5651  30.0243  30.5459  33.4265
    34.2303  34.9447  35.7534  36.2874  37.0586  38.0576  38.8961  40.9727
    41.6894  42.0918

     occupation numbers 
     1.0000   1.0000   1.0000   1.0000   1.0000   1.0000   1.0000   1.0000
     1.0000   1.0000   1.0000   1.0000   1.0000   1.0000   1.0000   1.0000
     1.0000   1.0000   1.0000   1.0000   1.0000   1.0000   1.0000   1.0000
     1.0000   1.0000   0.0000   0.0000   0.0000   0.0000   0.0000   0.0000
     0.0000   0.0000   0.0000   0.0000   0.0000   0.0000   0.0000   0.0000
     0.0000   0.0000   0.0000   0.0000   0.0000   0.0000   0.0000   0.0000
     0.0000   0.0000

          k = 0.1000-0.5196-0.3100 (  2508 PWs)   bands (ev):

  -114.3168-114.3168 -68.6536 -68.6536 -68.6486 -68.6486 -68.6482 -68.6482
    -8.3972  -8.3972   2.6923   2.6923   3.4877   3.4877   3.6307   3.6307
     4.4213   4.4213   4.5749   4.5749   5.1289   5.1289   7.0359   7.0359
     7.4899   7.4899  14.6834  14.6834  17.2886  17.2886  19.5593  19.5593
    22.7103  22.7103  25.0113  25.0113  30.2765  30.2765  31.0502  31.0502
    34.9672  34.9672  35.5087  35.5087  38.7481  38.7481  41.2496  41.2496
    42.1003  42.1004

     occupation numbers 
     1.0000   1.0000   1.0000   1.0000   1.0000   1.0000   1.0000   1.0000
     1.0000   1.0000   1.0000   1.0000   1.0000   1.0000   1.0000   1.0000
     1.0000   1.0000   1.0000   1.0000   1.0000   1.0000   1.0000   1.0000
     1.0000   1.0000   0.0000   0.0000   0.0000   0.0000   0.0000   0.0000
     0.0000   0.0000   0.0000   0.0000   0.0000   0.0000   0.0000   0.0000
     0.0000   0.0000   0.0000   0.0000   0.0000   0.0000   0.0000   0.0000
     0.0000   0.0000

          k = 0.1000-0.2887 0.1033 (  2518 PWs)   bands (ev):

  -114.3172-114.3167 -68.6543 -68.6526 -68.6487 -68.6484 -68.6477 -68.6473
    -8.8496  -8.3837   2.7928   3.0203   3.2327   3.3117   3.5122   3.5340
     4.1934   4.3005   4.4829   4.5816   5.1982   6.3943   6.7825   7.2670
     8.2064   8.2424  12.4057  15.5321  17.2021  18.4002  20.2563  21.0896
    21.6735  23.4084  24.3097  25.8941  28.4658  30.4249  31.1173  31.8039
    32.9331  33.8908  34.9550  35.9837  36.3282  36.9835  37.5035  38.4699
    39.7737  40.3173

     occupation numbers 
     1.0000   1.0000   1.0000   1.0000   1.0000   1.0000   1.0000   1.0000
     1.0000   1.0000   1.0000   1.0000   1.0000   1.0000   1.0000   1.0000
     1.0000   1.0000   1.0000   1.0000   1.0000   1.0000   1.0000   1.0000
     1.0000   1.0000   0.0000   0.0000   0.0000   0.0000   0.0000   0.0000
     0.0000   0.0000   0.0000   0.0000   0.0000   0.0000   0.0000   0.0000
     0.0000   0.0000   0.0000   0.0000   0.0000   0.0000   0.0000   0.0000
     0.0000   0.0000

          k = 0.1000-0.2887-0.3100 (  2524 PWs)   bands (ev):

  -114.3171-114.3170 -68.6538 -68.6538 -68.6485 -68.6485 -68.6477 -68.6477
    -8.6167  -8.6167   2.7045   2.7045   3.2822   3.2822   3.4009   3.4009
     4.3913   4.3913   4.4122   4.4122   6.1907   6.1907   7.4574   7.4574
     7.7339   7.7339  13.6945  13.6945  18.2131  18.2131  20.1124  20.1124
    22.2136  22.2136  26.0148  26.0148  28.5958  28.5958  31.7588  31.7588
    33.8734  33.8734  34.7796  34.7796  37.0695  37.0695  39.0857  39.0857
    40.2427  40.2427

     occupation numbers 
     1.0000   1.0000   1.0000   1.0000   1.0000   1.0000   1.0000   1.0000
     1.0000   1.0000   1.0000   1.0000   1.0000   1.0000   1.0000   1.0000
     1.0000   1.0000   1.0000   1.0000   1.0000   1.0000   1.0000   1.0000
     1.0000   1.0000   0.0000   0.0000   0.0000   0.0000   0.0000   0.0000
     0.0000   0.0000   0.0000   0.0000   0.0000   0.0000   0.0000   0.0000
     0.0000   0.0000   0.0000   0.0000   0.0000   0.0000   0.0000   0.0000
     0.0000   0.0000

          k = 0.1000-0.0577 0.1033 (  2522 PWs)   bands (ev):

  -114.3173-114.3168 -68.6547 -68.6522 -68.6477 -68.6476 -68.6472 -68.6467
    -9.1301  -8.5093   2.9629   3.0251   3.1041   3.1338   3.2577   3.2827
     4.2597   4.2761   4.4693   4.4879   5.0741   7.6928   7.9040   7.9405
     8.5980   8.6890  10.6880  14.1484  17.1454  20.6925  21.7884  21.8106
    22.1344  22.8676  25.4219  26.6924  27.2735  28.6555  29.7769  29.9800
    31.4603  32.6022  33.3603  33.4073  35.8461  36.6942  37.3968  37.6086
    39.5513  39.6318

     occupation numbers 
     1.0000   1.0000   1.0000   1.0000   1.0000   1.0000   1.0000   1.0000
     1.0000   1.0000   1.0000   1.0000   1.0000   1.0000   1.0000   1.0000
     1.0000   1.0000   1.0000   1.0000   1.0000   1.0000   1.0000   1.0000
     1.0000   1.0000   0.0000   0.0000   0.0000   0.0000   0.0000   0.0000
     0.0000   0.0000   0.0000   0.0000   0.0000   0.0000   0.0000   0.0000
     0.0000   0.0000   0.0000   0.0000   0.0000   0.0000   0.0000   0.0000
     0.0000   0.0000

          k = 0.1000-0.0577-0.3100 (  2524 PWs)   bands (ev):

  -114.3171-114.3171 -68.6541 -68.6541 -68.6477 -68.6477 -68.6470 -68.6470
    -8.8266  -8.8266   2.8059   2.8059   3.1660   3.1660   3.1745   3.1745
     4.3872   4.3872   4.3888   4.3888   6.5413   6.5413   8.1432   8.1432
     8.3191   8.3191  12.5255  12.5255  18.7861  18.7861  21.3099  21.3099
    22.0589  22.0589  27.0375  27.0375  28.9703  28.9703  29.3226  29.3226
    32.3320  32.3320  34.0526  34.0526  35.1117  35.1117  37.8811  37.8811
    40.2243  40.2243

     occupation numbers 
     1.0000   1.0000   1.0000   1.0000   1.0000   1.0000   1.0000   1.0000
     1.0000   1.0000   1.0000   1.0000   1.0000   1.0000   1.0000   1.0000
     1.0000   1.0000   1.0000   1.0000   1.0000   1.0000   1.0000   1.0000
     1.0000   1.0000   0.0000   0.0000   0.0000   0.0000   0.0000   0.0000
     0.0000   0.0000   0.0000   0.0000   0.0000   0.0000   0.0000   0.0000
     0.0000   0.0000   0.0000   0.0000   0.0000   0.0000   0.0000   0.0000
     0.0000   0.0000

          k = 0.3000 0.5196 0.1033 (  2502 PWs)   bands (ev):

  -114.3168-114.3167 -68.6537 -68.6533 -68.6488 -68.6487 -68.6486 -68.6483
    -8.3957  -8.3155   3.0281   3.2347   3.3677   3.5810   3.8744   3.9307
     4.2107   4.3319   4.5308   4.5862   5.0789   5.2757   5.4154   6.7453
     7.0550   7.2851  15.8704  16.3231  16.9704  17.0369  18.8822  19.2115
    21.7390  23.0669  23.6942  27.9649  29.5070  30.0725  31.7898  32.9374
    34.3811  34.4050  35.7758  36.6051  36.7734  37.4591  37.6505  38.0493
    43.1906  44.5315

     occupation numbers 
     1.0000   1.0000   1.0000   1.0000   1.0000   1.0000   1.0000   1.0000
     1.0000   1.0000   1.0000   1.0000   1.0000   1.0000   1.0000   1.0000
     1.0000   1.0000   1.0000   1.0000   1.0000   1.0000   1.0000   1.0000
     1.0000   1.0000   0.0000   0.0000   0.0000   0.0000   0.0000   0.0000
     0.0000   0.0000   0.0000   0.0000   0.0000   0.0000   0.0000   0.0000
     0.0000   0.0000   0.0000   0.0000   0.0000   0.0000   0.0000   0.0000
     0.0000   0.0000

          k = 0.3000 0.5196-0.3100 (  2504 PWs)   bands (ev):

  -114.3167-114.3167 -68.6536 -68.6536 -68.6483 -68.6483 -68.6482 -68.6482
    -8.3475  -8.3475   2.9782   2.9782   3.2977   3.2977   3.7855   3.7855
     4.3012   4.3012   4.7559   4.7559   5.1204   5.1204   6.1856   6.1856
     7.5467   7.5467  16.0957  16.0957  17.2485  17.2485  17.7918  17.7918
    23.9410  23.9410  25.0508  25.0508  28.3630  28.3630  32.3421  32.3421
    34.5320  34.5320  36.2091  36.2091  39.7115  39.7115  40.7920  40.7920
    42.9922  42.9926

     occupation numbers 
     1.0000   1.0000   1.0000   1.0000   1.0000   1.0000   1.0000   1.0000
     1.0000   1.0000   1.0000   1.0000   1.0000   1.0000   1.0000   1.0000
     1.0000   1.0000   1.0000   1.0000   1.0000   1.0000   1.0000   1.0000
     1.0000   1.0000   0.0000   0.0000   0.0000   0.0000   0.0000   0.0000
     0.0000   0.0000   0.0000   0.0000   0.0000   0.0000   0.0000   0.0000
     0.0000   0.0000   0.0000   0.0000   0.0000   0.0000   0.0000   0.0000
     0.0000   0.0000

          k = 0.3000-0.4041 0.1033 (  2502 PWs)   bands (ev):

  -114.3169-114.3165 -68.6537 -68.6530 -68.6488 -68.6487 -68.6484 -68.6478
    -8.5118  -8.2996   2.9346   3.0745   3.3443   3.4841   3.7693   3.8076
     4.2132   4.3734   4.5338   4.7620   4.9473   5.6085   5.9630   6.3844
     7.4136   7.6587  14.6410  16.1542  17.1078  17.4634  19.2050  19.9451
    20.9555  23.3047  24.4713  26.9294  29.4087  30.6431  31.6204  31.9128
    34.1730  34.6198  35.5282  36.3652  36.9372  37.5055  37.8489  40.9778
    41.4063  43.0003

     occupation numbers 
     1.0000   1.0000   1.0000   1.0000   1.0000   1.0000   1.0000   1.0000
     1.0000   1.0000   1.0000   1.0000   1.0000   1.0000   1.0000   1.0000
     1.0000   1.0000   1.0000   1.0000   1.0000   1.0000   1.0000   1.0000
     1.0000   1.0000   0.0000   0.0000   0.0000   0.0000   0.0000   0.0000
     0.0000   0.0000   0.0000   0.0000   0.0000   0.0000   0.0000   0.0000
     0.0000   0.0000   0.0000   0.0000   0.0000   0.0000   0.0000   0.0000
     0.0000   0.0000

          k = 0.3000-0.4041-0.3100 (  2510 PWs)   bands (ev):

  -114.3168-114.3168 -68.6538 -68.6538 -68.6487 -68.6487 -68.6482 -68.6482
    -8.3990  -8.3990   2.8114   2.8114   3.3786   3.3786   3.6333   3.6333
     4.3862   4.3862   4.5999   4.5999   5.3379   5.3379   6.6551   6.6551
     7.5176   7.5176  15.1207  15.1207  17.4978  17.4978  18.7631  18.7631
    23.0274  23.0274  25.4012  25.4012  28.9548  28.9548  31.9031  31.9031
    34.3522  34.3522  36.4320  36.4320  39.0341  39.0341  40.5205  40.5205
    42.0760  42.0760

     occupation numbers 
     1.0000   1.0000   1.0000   1.0000   1.0000   1.0000   1.0000   1.0000
     1.0000   1.0000   1.0000   1.0000   1.0000   1.0000   1.0000   1.0000
     1.0000   1.0000   1.0000   1.0000   1.0000   1.0000   1.0000   1.0000
     1.0000   1.0000   0.0000   0.0000   0.0000   0.0000   0.0000   0.0000
     0.0000   0.0000   0.0000   0.0000   0.0000   0.0000   0.0000   0.0000
     0.0000   0.0000   0.0000   0.0000   0.0000   0.0000   0.0000   0.0000
     0.0000   0.0000

          k = 0.3000-0.1732 0.1033 (  2515 PWs)   bands (ev):

  -114.3171-114.3167 -68.6542 -68.6526 -68.6487 -68.6484 -68.6483 -68.6472
    -8.7764  -8.3576   2.7207   3.0151   3.2756   3.3906   3.5835   3.6004
     4.1908   4.3233   4.4883   4.5923   5.2095   5.9696   6.6732   7.1680
     8.1076   8.2104  12.7331  15.6308  17.1290  17.8939  19.9437  21.3791
    22.2184  22.7937  23.9038  27.2027  27.5300  29.4270  31.1720  33.5257
    33.6017  34.7402  34.9378  35.9951  36.3663  37.2823  37.7890  38.4685
    39.8488  40.2516

     occupation numbers 
     1.0000   1.0000   1.0000   1.0000   1.0000   1.0000   1.0000   1.0000
     1.0000   1.0000   1.0000   1.0000   1.0000   1.0000   1.0000   1.0000
     1.0000   1.0000   1.0000   1.0000   1.0000   1.0000   1.0000   1.0000
     1.0000   1.0000   0.0000   0.0000   0.0000   0.0000   0.0000   0.0000
     0.0000   0.0000   0.0000   0.0000   0.0000   0.0000   0.0000   0.0000
     0.0000   0.0000   0.0000   0.0000   0.0000   0.0000   0.0000   0.0000
     0.0000   0.0000

          k = 0.3000-0.1732-0.3100 (  2506 PWs)   bands (ev):

  -114.3168-114.3168 -68.6532 -68.6532 -68.6482 -68.6482 -68.6478 -68.6478
    -8.5653  -8.5653   2.6626   2.6626   3.3934   3.3934   3.4099   3.4099
     4.4039   4.4039   4.4138   4.4138   5.9483   5.9483   7.4100   7.4100
     7.7042   7.7042  13.8388  13.8388  17.9010  17.9010  20.2132  20.2132
    22.3926  22.3926  25.1799  25.1799  29.9975  29.9975  30.8275  30.8275
    34.1419  34.1419  35.5639  35.5639  37.2609  37.2609  39.2304  39.2304
    41.2691  41.2692

     occupation numbers 
     1.0000   1.0000   1.0000   1.0000   1.0000   1.0000   1.0000   1.0000
     1.0000   1.0000   1.0000   1.0000   1.0000   1.0000   1.0000   1.0000
     1.0000   1.0000   1.0000   1.0000   1.0000   1.0000   1.0000   1.0000
     1.0000   1.0000   0.0000   0.0000   0.0000   0.0000   0.0000   0.0000
     0.0000   0.0000   0.0000   0.0000   0.0000   0.0000   0.0000   0.0000
     0.0000   0.0000   0.0000   0.0000   0.0000   0.0000   0.0000   0.0000
     0.0000   0.0000

          k =-0.5000-0.8660 0.1033 (  2504 PWs)   bands (ev):

  -114.3170-114.3165 -68.6544 -68.6525 -68.6492 -68.6487 -68.6483 -68.6471
    -8.5024  -8.3038   2.7720   2.9061   3.3490   3.6584   3.6961   3.8173
     4.3601   4.4383   4.5091   4.5987   5.0228   5.1874   6.2515   6.6427
     7.5968   7.8835  14.3649  15.4021  16.5258  17.3869  19.2505  21.2706
    22.0250  22.9456  23.8088  27.3640  28.9006  29.6019  30.2894  33.5250
    34.7133  35.0126  35.3402  36.2476  37.3886  38.1354  39.9038  41.6227
    41.8734  42.0189

     occupation numbers 
     1.0000   1.0000   1.0000   1.0000   1.0000   1.0000   1.0000   1.0000
     1.0000   1.0000   1.0000   1.0000   1.0000   1.0000   1.0000   1.0000
     1.0000   1.0000   1.0000   1.0000   1.0000   1.0000   1.0000   1.0000
     1.0000   1.0000   0.0000   0.0000   0.0000   0.0000   0.0000   0.0000
     0.0000   0.0000   0.0000   0.0000   0.0000   0.0000   0.0000   0.0000
     0.0000   0.0000   0.0000   0.0000   0.0000   0.0000   0.0000   0.0000
     0.0000   0.0000

          k =-0.5000-0.8660-0.3100 (  2500 PWs)   bands (ev):

  -114.3167-114.3167 -68.6534 -68.6534 -68.6486 -68.6486 -68.6479 -68.6479
    -8.3962  -8.3962   2.6322   2.6322   3.5537   3.5537   3.6155   3.6155
     4.4606   4.4606   4.5492   4.5492   5.0236   5.0236   7.2953   7.2953
     7.4250   7.4250  14.4304  14.4304  17.2237  17.2237  20.0200  20.0200
    22.4653  22.4653  24.8388  24.8388  30.4165  30.4165  31.7071  31.7071
    34.1781  34.1781  35.3517  35.3517  39.1434  39.1434  41.2019  41.2019
    42.1940  42.1940

     occupation numbers 
     1.0000   1.0000   1.0000   1.0000   1.0000   1.0000   1.0000   1.0000
     1.0000   1.0000   1.0000   1.0000   1.0000   1.0000   1.0000   1.0000
     1.0000   1.0000   1.0000   1.0000   1.0000   1.0000   1.0000   1.0000
     1.0000   1.0000   0.0000   0.0000   0.0000   0.0000   0.0000   0.0000
     0.0000   0.0000   0.0000   0.0000   0.0000   0.0000   0.0000   0.0000
     0.0000   0.0000   0.0000   0.0000   0.0000   0.0000   0.0000   0.0000
     0.0000   0.0000

     highest occupied, lowest unoccupied level (ev):     8.6890   10.6880

     Writing all to output data dir ./TMP/zno.save/ :
     XML data file, pseudopotentials, collected wavefunctions

     init_run     :      0.74s CPU      0.77s WALL (       1 calls)
     electrons    :     26.58s CPU     27.67s WALL (       1 calls)

     Called by init_run:
     wfcinit      :      0.00s CPU      0.00s WALL (       1 calls)
     wfcinit:atom :      0.00s CPU      0.00s WALL (       9 calls)
     wfcinit:wfcr :      0.20s CPU      0.21s WALL (       9 calls)
     potinit      :      0.07s CPU      0.08s WALL (       1 calls)
     hinit0       :      0.59s CPU      0.59s WALL (       1 calls)

     Called by electrons:
     c_bands      :     26.58s CPU     27.67s WALL (       1 calls)
     v_of_rho     :      0.06s CPU      0.06s WALL (       1 calls)
     v_h          :      0.00s CPU      0.00s WALL (       1 calls)
     v_xc         :      0.05s CPU      0.06s WALL (       1 calls)
     newd         :      0.07s CPU      0.08s WALL (       1 calls)

     Called by c_bands:
     init_us_2    :      0.00s CPU      0.01s WALL (       9 calls)
     ccgdiagg     :     25.31s CPU     26.35s WALL (      54 calls)
     wfcrot       :      1.23s CPU      1.28s WALL (      54 calls)

     Called by sum_band:

     Called by *cgdiagg:
     h_psi        :     19.03s CPU     19.81s WALL (   34259 calls)
     s_psi        :      1.59s CPU      1.68s WALL (   68464 calls)

     Called by h_psi:
     h_psi:calbec :      1.55s CPU      1.61s WALL (   34259 calls)
     vloc_psi     :     15.04s CPU     15.66s WALL (   34259 calls)
     add_vuspsi   :      2.22s CPU      2.33s WALL (   34259 calls)
     hs_1psi      :     18.98s CPU     19.75s WALL (   34205 calls)
     s_1psi       :      1.70s CPU      1.76s WALL (   34205 calls)

     General routines
     calbec       :      2.27s CPU      2.39s WALL (   68464 calls)
     fft          :      0.04s CPU      0.04s WALL (      13 calls)
     ffts         :      0.01s CPU      0.01s WALL (       1 calls)
     fftw         :     11.11s CPU     11.55s WALL (   73810 calls)
     interpolate  :      0.01s CPU      0.01s WALL (       1 calls)
     davcio       :      0.00s CPU      0.00s WALL (      18 calls)

     Parallel routines

     PWSCF        :     27.69s CPU     29.11s WALL


   This run was terminated on:  20:37:17  26Mar2024            

=------------------------------------------------------------------------------=
   JOB DONE.
=------------------------------------------------------------------------------=
