
     Program PWSCF v.7.3.1 starts on 26Mar2024 at 20:27:29 

     This program is part of the open-source Quantum ESPRESSO suite
     for quantum simulation of materials; please cite
         "P. Giannozzi et al., J. Phys.:Condens. Matter 21 395502 (2009);
         "P. Giannozzi et al., J. Phys.:Condens. Matter 29 465901 (2017);
         "P. Giannozzi et al., J. Chem. Phys. 152 154105 (2020);
          URL http://www.quantum-espresso.org", 
     in publications or presentations arising from this work. More details at
     http://www.quantum-espresso.org/quote

     Parallel version (MPI & OpenMP), running on       4 processor cores
     Number of MPI processes:                 4
     Threads/MPI process:                     1

     MPI processes distributed on     1 nodes
     150724 MiB available memory on the printing compute node when the environment starts

     Reading input from scf.pwi

     Current dimensions of program PWSCF are:
     Max number of different atomic species (ntypx) = 10
     Max number of k-points (npk) =  40000
     Max angular momentum in pseudopotentials (lmaxx) =  4
     file Zn.pbesol-spn-rrkjus_gipaw.1.0.0.UPF: wavefunction(s)  3P renormalized

     R & G space division:  proc/nbgrp/npool/nimage =       4
     Subspace diagonalization in iterative solution of the eigenvalue problem:
     a serial algorithm will be used


     Parallelization info
     --------------------
     sticks:   dense  smooth     PW     G-vecs:    dense   smooth      PW
     Min         382     153     49                19836     5019     921
     Max         383     154     50                19845     5020     928
     Sum        1531     613    199                79367    20077    3705

     Using Slab Decomposition



     bravais-lattice index     =            4
     lattice parameter (alat)  =       6.1177  a.u.
     unit-cell volume          =     319.8518 (a.u.)^3
     number of atoms/cell      =            4
     number of atomic types    =            2
     number of electrons       =        52.00
     number of Kohn-Sham states=           26
     kinetic-energy cutoff     =      60.0000  Ry
     charge density cutoff     =     600.0000  Ry
     scf convergence threshold =      1.0E-09
     mixing beta               =       0.7000
     number of iterations used =            8  plain     mixing
     Exchange-correlation= PBESOL
                           (   1   4  10   8   0   0   0)

     celldm(1)=   6.117707  celldm(2)=   0.000000  celldm(3)=   1.613066
     celldm(4)=   0.000000  celldm(5)=   0.000000  celldm(6)=   0.000000

     crystal axes: (cart. coord. in units of alat)
               a(1) = (   1.000000   0.000000   0.000000 )  
               a(2) = (  -0.500000   0.866025   0.000000 )  
               a(3) = (   0.000000   0.000000   1.613066 )  

     reciprocal axes: (cart. coord. in units 2 pi/alat)
               b(1) = (  1.000000  0.577350 -0.000000 )  
               b(2) = (  0.000000  1.154701  0.000000 )  
               b(3) = (  0.000000 -0.000000  0.619937 )  


     PseudoPot. # 1 for Zn read from file:
     /work4/dls/shared/pslibrary_pbesol/Zn.pbesol-spn-rrkjus_gipaw.1.0.0.UPF
     MD5 check sum: b4e9e16921b23c2f86f37449a7d7d891
     Pseudo is Ultrasoft + core correction, Zval = 20.0
     Generated using 'atomic' code by A. Dal Corso  v.7.0
     Using radial grid of 1201 points,  6 beta functions with: 
                l(1) =   0
                l(2) =   0
                l(3) =   1
                l(4) =   1
                l(5) =   2
                l(6) =   2
     Q(r) pseudized with 0 coefficients 


     PseudoPot. # 2 for O  read from file:
     /work4/dls/shared/pslibrary_pbesol/O.pbesol-n-rrkjus_gipaw.1.0.0.UPF
     MD5 check sum: 2ea9f908f11928dd1b1a171180989522
     Pseudo is Ultrasoft + core correction, Zval =  6.0
     Generated using 'atomic' code by A. Dal Corso  v.7.0
     Using radial grid of 1095 points,  4 beta functions with: 
                l(1) =   0
                l(2) =   0
                l(3) =   1
                l(4) =   1
     Q(r) pseudized with 0 coefficients 


     atomic species   valence    mass     pseudopotential
     Zn               20.00    65.38000     Zn( 1.00)
     O                 6.00    15.99900     O ( 1.00)

     12 Sym. Ops. (no inversion) found ( 6 have fractional translation)


                                    s                        frac. trans.

      isym =  1     identity                                     

 cryst.   s( 1) = (     1          0          0      )
                  (     0          1          0      )
                  (     0          0          1      )

 cart.    s( 1) = (  1.0000000  0.0000000  0.0000000 )
                  (  0.0000000  1.0000000  0.0000000 )
                  (  0.0000000  0.0000000  1.0000000 )


      isym =  2     180 deg rotation - cart. axis [0,0,1]        

 cryst.   s( 2) = (    -1          0          0      )    f =(  0.0000000 )
                  (     0         -1          0      )       (  0.0000000 )
                  (     0          0          1      )       ( -0.5000000 )

 cart.    s( 2) = ( -1.0000000  0.0000000  0.0000000 )    f =(  0.0000000 )
                  (  0.0000000 -1.0000000  0.0000000 )       (  0.0000000 )
                  (  0.0000000  0.0000000  1.0000000 )       ( -0.8065331 )


      isym =  3      60 deg rotation - cryst. axis [0,0,1]       

 cryst.   s( 3) = (     1          1          0      )    f =(  0.0000000 )
                  (    -1          0          0      )       ( -0.0000000 )
                  (     0          0          1      )       ( -0.5000000 )

 cart.    s( 3) = (  0.5000000 -0.8660254  0.0000000 )    f =(  0.0000000 )
                  (  0.8660254  0.5000000  0.0000000 )       ( -0.0000000 )
                  (  0.0000000  0.0000000  1.0000000 )       ( -0.8065331 )


      isym =  4      60 deg rotation - cryst. axis [0,0,-1]      

 cryst.   s( 4) = (     0         -1          0      )    f =(  0.0000000 )
                  (     1          1          0      )       (  0.0000000 )
                  (     0          0          1      )       ( -0.5000000 )

 cart.    s( 4) = (  0.5000000  0.8660254  0.0000000 )    f =(  0.0000000 )
                  ( -0.8660254  0.5000000  0.0000000 )       (  0.0000000 )
                  (  0.0000000  0.0000000  1.0000000 )       ( -0.8065331 )


      isym =  5     120 deg rotation - cryst. axis [0,0,1]       

 cryst.   s( 5) = (     0          1          0      )
                  (    -1         -1          0      )
                  (     0          0          1      )

 cart.    s( 5) = ( -0.5000000 -0.8660254  0.0000000 )
                  (  0.8660254 -0.5000000  0.0000000 )
                  (  0.0000000  0.0000000  1.0000000 )


      isym =  6     120 deg rotation - cryst. axis [0,0,-1]      

 cryst.   s( 6) = (    -1         -1          0      )
                  (     1          0          0      )
                  (     0          0          1      )

 cart.    s( 6) = ( -0.5000000  0.8660254  0.0000000 )
                  ( -0.8660254 -0.5000000  0.0000000 )
                  (  0.0000000  0.0000000  1.0000000 )


      isym =  7     inv. 180 deg rotation - cart. axis [0,1,0]   

 cryst.   s( 7) = (     1          0          0      )    f =(  0.0000000 )
                  (    -1         -1          0      )       (  0.0000000 )
                  (     0          0          1      )       ( -0.5000000 )

 cart.    s( 7) = (  1.0000000  0.0000000  0.0000000 )    f =(  0.0000000 )
                  (  0.0000000 -1.0000000  0.0000000 )       (  0.0000000 )
                  (  0.0000000  0.0000000  1.0000000 )       ( -0.8065331 )


      isym =  8     inv. 180 deg rotation - cart. axis [1,0,0]   

 cryst.   s( 8) = (    -1          0          0      )
                  (     1          1          0      )
                  (     0          0          1      )

 cart.    s( 8) = ( -1.0000000  0.0000000  0.0000000 )
                  (  0.0000000  1.0000000  0.0000000 )
                  (  0.0000000  0.0000000  1.0000000 )


      isym =  9     inv. 180 deg rotation - cryst. axis [1,-1,0] 

 cryst.   s( 9) = (     0          1          0      )    f =(  0.0000000 )
                  (     1          0          0      )       ( -0.0000000 )
                  (     0          0          1      )       ( -0.5000000 )

 cart.    s( 9) = ( -0.5000000  0.8660254  0.0000000 )    f =(  0.0000000 )
                  (  0.8660254  0.5000000  0.0000000 )       ( -0.0000000 )
                  (  0.0000000  0.0000000  1.0000000 )       ( -0.8065331 )


      isym = 10     inv. 180 deg rotation - cryst. axis [2,1,0]  

 cryst.   s(10) = (    -1         -1          0      )    f =(  0.0000000 )
                  (     0          1          0      )       (  0.0000000 )
                  (     0          0          1      )       ( -0.5000000 )

 cart.    s(10) = ( -0.5000000 -0.8660254  0.0000000 )    f =(  0.0000000 )
                  ( -0.8660254  0.5000000  0.0000000 )       (  0.0000000 )
                  (  0.0000000  0.0000000  1.0000000 )       ( -0.8065331 )


      isym = 11     inv. 180 deg rotation - cryst. axis [0,1,0]  

 cryst.   s(11) = (     1          1          0      )
                  (     0         -1          0      )
                  (     0          0          1      )

 cart.    s(11) = (  0.5000000  0.8660254  0.0000000 )
                  (  0.8660254 -0.5000000  0.0000000 )
                  (  0.0000000  0.0000000  1.0000000 )


      isym = 12     inv. 180 deg rotation - cryst. axis [1,1,0]  

 cryst.   s(12) = (     0         -1          0      )
                  (    -1          0          0      )
                  (     0          0          1      )

 cart.    s(12) = (  0.5000000 -0.8660254  0.0000000 )
                  ( -0.8660254 -0.5000000  0.0000000 )
                  (  0.0000000  0.0000000  1.0000000 )


     point group C_6v (6mm) 
     there are  6 classes
     the character table:

       E     2C6   2C3   C2    3s_v  3s_d 
A_1    1.00  1.00  1.00  1.00  1.00  1.00
A_2    1.00  1.00  1.00  1.00 -1.00 -1.00
B_1    1.00 -1.00  1.00 -1.00  1.00 -1.00
B_2    1.00 -1.00  1.00 -1.00 -1.00  1.00
E_1    2.00  1.00 -1.00 -2.00  0.00  0.00
E_2    2.00 -1.00 -1.00  2.00  0.00  0.00

     the symmetry operations in each class and the name of the first element:

     E        1
          identity                                               
     2C6      3    4
           60 deg rotation - cryst. axis [0,0,1]                 
     2C3      5    6
          120 deg rotation - cryst. axis [0,0,1]                 
     C2       2
          180 deg rotation - cart. axis [0,0,1]                  
     3s_v     8   12   11
          inv. 180 deg rotation - cart. axis [1,0,0]             
     3s_d     7    9   10
          inv. 180 deg rotation - cart. axis [0,1,0]             

   Cartesian axes

     site n.     atom                  positions (alat units)
         1        Zn     tau(   1) = (  -0.0000000   0.5773503   0.0009545  )
         2        Zn     tau(   2) = (   0.5000000   0.2886751   0.8074875  )
         3        O      tau(   3) = (  -0.0000000   0.5773503   0.6125107  )
         4        O      tau(   4) = (   0.5000000   0.2886751   1.4190438  )

   Crystallographic axes

     site n.     atom                  positions (cryst. coord.)
         1        Zn     tau(   1) = (  0.3333333  0.6666667  0.0005917  )
         2        Zn     tau(   2) = (  0.6666667  0.3333333  0.5005917  )
         3        O      tau(   3) = (  0.3333333  0.6666667  0.3797183  )
         4        O      tau(   4) = (  0.6666667  0.3333333  0.8797183  )

     number of k points=    18
                       cart. coord. in units 2pi/alat
        k(    1) = (   0.1000000   0.1732051   0.1033229), wk =   0.1066667
        k(    2) = (   0.1000000   0.1732051  -0.3099687), wk =   0.0533333
        k(    3) = (   0.1000000   0.4041452   0.1033229), wk =   0.2133333
        k(    4) = (   0.1000000   0.4041452  -0.3099687), wk =   0.1066667
        k(    5) = (   0.1000000  -0.5196152   0.1033229), wk =   0.2133333
        k(    6) = (   0.1000000  -0.5196152  -0.3099687), wk =   0.1066667
        k(    7) = (   0.1000000  -0.2886751   0.1033229), wk =   0.2133333
        k(    8) = (   0.1000000  -0.2886751  -0.3099687), wk =   0.1066667
        k(    9) = (   0.1000000  -0.0577350   0.1033229), wk =   0.1066667
        k(   10) = (   0.1000000  -0.0577350  -0.3099687), wk =   0.0533333
        k(   11) = (   0.3000000   0.5196152   0.1033229), wk =   0.1066667
        k(   12) = (   0.3000000   0.5196152  -0.3099687), wk =   0.0533333
        k(   13) = (   0.3000000  -0.4041452   0.1033229), wk =   0.2133333
        k(   14) = (   0.3000000  -0.4041452  -0.3099687), wk =   0.1066667
        k(   15) = (   0.3000000  -0.1732051   0.1033229), wk =   0.1066667
        k(   16) = (   0.3000000  -0.1732051  -0.3099687), wk =   0.0533333
        k(   17) = (  -0.5000000  -0.8660254   0.1033229), wk =   0.0533333
        k(   18) = (  -0.5000000  -0.8660254  -0.3099687), wk =   0.0266667

                       cryst. coord.
        k(    1) = (   0.1000000   0.1000000   0.1666667), wk =   0.1066667
        k(    2) = (   0.1000000   0.1000000  -0.5000000), wk =   0.0533333
        k(    3) = (   0.1000000   0.3000000   0.1666667), wk =   0.2133333
        k(    4) = (   0.1000000   0.3000000  -0.5000000), wk =   0.1066667
        k(    5) = (   0.1000000  -0.5000000   0.1666667), wk =   0.2133333
        k(    6) = (   0.1000000  -0.5000000  -0.5000000), wk =   0.1066667
        k(    7) = (   0.1000000  -0.3000000   0.1666667), wk =   0.2133333
        k(    8) = (   0.1000000  -0.3000000  -0.5000000), wk =   0.1066667
        k(    9) = (   0.1000000  -0.1000000   0.1666667), wk =   0.1066667
        k(   10) = (   0.1000000  -0.1000000  -0.5000000), wk =   0.0533333
        k(   11) = (   0.3000000   0.3000000   0.1666667), wk =   0.1066667
        k(   12) = (   0.3000000   0.3000000  -0.5000000), wk =   0.0533333
        k(   13) = (   0.3000000  -0.5000000   0.1666667), wk =   0.2133333
        k(   14) = (   0.3000000  -0.5000000  -0.5000000), wk =   0.1066667
        k(   15) = (   0.3000000  -0.3000000   0.1666667), wk =   0.1066667
        k(   16) = (   0.3000000  -0.3000000  -0.5000000), wk =   0.0533333
        k(   17) = (  -0.5000000  -0.5000000   0.1666667), wk =   0.0533333
        k(   18) = (  -0.5000000  -0.5000000  -0.5000000), wk =   0.0266667

     Dense  grid:    79367 G-vectors     FFT dimensions: (  48,  48,  80)

     Smooth grid:    20077 G-vectors     FFT dimensions: (  32,  32,  50)

     Dynamical RAM for                 wfc:       0.25 MB

     Dynamical RAM for     wfc (w. buffer):       4.73 MB

     Dynamical RAM for           str. fact:       0.61 MB

     Dynamical RAM for           local pot:       0.00 MB

     Dynamical RAM for          nlocal pot:       0.50 MB

     Dynamical RAM for                qrad:       3.93 MB

     Dynamical RAM for          rho,v,vnew:       1.96 MB

     Dynamical RAM for               rhoin:       0.65 MB

     Dynamical RAM for            rho*nmix:       4.84 MB

     Dynamical RAM for           G-vectors:       1.17 MB

     Dynamical RAM for          h,s,v(r/c):       0.03 MB

     Dynamical RAM for          <psi|beta>:       0.02 MB

     Dynamical RAM for      wfcinit/wfcrot:       0.55 MB

     Dynamical RAM for           addusdens:      56.93 MB

     Estimated static dynamical RAM per process >      16.22 MB

     Estimated max dynamical RAM per process >      77.99 MB

     Estimated total dynamical RAM >     311.96 MB

     Initial potential from superposition of free atoms

     starting charge      51.9997, renormalised to      52.0000
     Starting wfcs are   28 atomic wfcs

     total cpu time spent up to now is        1.0 secs

     Self-consistent Calculation

     iteration #  1     ecut=    60.00 Ry     beta= 0.70
     CG style diagonalization

---- Real-time Memory Report at c_bands before calling an iterative solver
           273 MiB given to the printing process from OS
             0 MiB allocation reported by mallinfo(arena+hblkhd)
        150594 MiB available memory on the node where the printing process lives
------------------
     ethr =  1.00E-02,  avg # of iterations =  2.0

     total cpu time spent up to now is        1.6 secs

     total energy              =    -971.42308846 Ry
     estimated scf accuracy    <       1.30584023 Ry

     iteration #  2     ecut=    60.00 Ry     beta= 0.70
     CG style diagonalization

---- Real-time Memory Report at c_bands before calling an iterative solver
           292 MiB given to the printing process from OS
             0 MiB allocation reported by mallinfo(arena+hblkhd)
        150566 MiB available memory on the node where the printing process lives
------------------
     ethr =  2.51E-03,  avg # of iterations =  4.3

     total cpu time spent up to now is        2.5 secs

     total energy              =    -972.08562575 Ry
     estimated scf accuracy    <       1.78383670 Ry

     iteration #  3     ecut=    60.00 Ry     beta= 0.70
     CG style diagonalization

---- Real-time Memory Report at c_bands before calling an iterative solver
           292 MiB given to the printing process from OS
             0 MiB allocation reported by mallinfo(arena+hblkhd)
        150564 MiB available memory on the node where the printing process lives
------------------
     ethr =  2.51E-03,  avg # of iterations =  3.5

     total cpu time spent up to now is        3.3 secs

     total energy              =    -972.16384924 Ry
     estimated scf accuracy    <       0.26654711 Ry

     iteration #  4     ecut=    60.00 Ry     beta= 0.70
     CG style diagonalization

---- Real-time Memory Report at c_bands before calling an iterative solver
           292 MiB given to the printing process from OS
             0 MiB allocation reported by mallinfo(arena+hblkhd)
        150563 MiB available memory on the node where the printing process lives
------------------
     ethr =  5.13E-04,  avg # of iterations =  3.8

     total cpu time spent up to now is        4.1 secs

     total energy              =    -972.26177410 Ry
     estimated scf accuracy    <       0.02190084 Ry

     iteration #  5     ecut=    60.00 Ry     beta= 0.70
     CG style diagonalization

---- Real-time Memory Report at c_bands before calling an iterative solver
           293 MiB given to the printing process from OS
             0 MiB allocation reported by mallinfo(arena+hblkhd)
        150562 MiB available memory on the node where the printing process lives
------------------
     ethr =  4.21E-05,  avg # of iterations =  5.6

     total cpu time spent up to now is        5.3 secs

     total energy              =    -972.37755429 Ry
     estimated scf accuracy    <       0.22556211 Ry

     iteration #  6     ecut=    60.00 Ry     beta= 0.70
     CG style diagonalization

---- Real-time Memory Report at c_bands before calling an iterative solver
           293 MiB given to the printing process from OS
             0 MiB allocation reported by mallinfo(arena+hblkhd)
        150561 MiB available memory on the node where the printing process lives
------------------
     ethr =  4.21E-05,  avg # of iterations =  4.2

     total cpu time spent up to now is        6.2 secs

     total energy              =    -972.34641469 Ry
     estimated scf accuracy    <       0.06976849 Ry

     iteration #  7     ecut=    60.00 Ry     beta= 0.70
     CG style diagonalization

---- Real-time Memory Report at c_bands before calling an iterative solver
           293 MiB given to the printing process from OS
             0 MiB allocation reported by mallinfo(arena+hblkhd)
        150560 MiB available memory on the node where the printing process lives
------------------
     ethr =  4.21E-05,  avg # of iterations =  5.2

     total cpu time spent up to now is        7.3 secs

     total energy              =    -972.38092949 Ry
     estimated scf accuracy    <       0.04959437 Ry

     iteration #  8     ecut=    60.00 Ry     beta= 0.70
     CG style diagonalization

---- Real-time Memory Report at c_bands before calling an iterative solver
           293 MiB given to the printing process from OS
             0 MiB allocation reported by mallinfo(arena+hblkhd)
        150559 MiB available memory on the node where the printing process lives
------------------
     ethr =  4.21E-05,  avg # of iterations =  3.8

     total cpu time spent up to now is        8.2 secs

     total energy              =    -972.38055968 Ry
     estimated scf accuracy    <       0.01387374 Ry

     iteration #  9     ecut=    60.00 Ry     beta= 0.70
     CG style diagonalization

---- Real-time Memory Report at c_bands before calling an iterative solver
           293 MiB given to the printing process from OS
             0 MiB allocation reported by mallinfo(arena+hblkhd)
        150587 MiB available memory on the node where the printing process lives
------------------
     ethr =  2.67E-05,  avg # of iterations =  3.7

     total cpu time spent up to now is        9.0 secs

     total energy              =    -972.38235157 Ry
     estimated scf accuracy    <       0.00236157 Ry

     iteration # 10     ecut=    60.00 Ry     beta= 0.70
     CG style diagonalization

---- Real-time Memory Report at c_bands before calling an iterative solver
           294 MiB given to the printing process from OS
             0 MiB allocation reported by mallinfo(arena+hblkhd)
        150628 MiB available memory on the node where the printing process lives
------------------
     ethr =  4.54E-06,  avg # of iterations =  4.5

     total cpu time spent up to now is       10.0 secs

     total energy              =    -972.38574704 Ry
     estimated scf accuracy    <       0.00052259 Ry

     iteration # 11     ecut=    60.00 Ry     beta= 0.70
     CG style diagonalization

---- Real-time Memory Report at c_bands before calling an iterative solver
           294 MiB given to the printing process from OS
             0 MiB allocation reported by mallinfo(arena+hblkhd)
        150643 MiB available memory on the node where the printing process lives
------------------
     ethr =  1.00E-06,  avg # of iterations =  4.3

     total cpu time spent up to now is       10.9 secs

     total energy              =    -972.38598701 Ry
     estimated scf accuracy    <       0.00072532 Ry

     iteration # 12     ecut=    60.00 Ry     beta= 0.70
     CG style diagonalization

---- Real-time Memory Report at c_bands before calling an iterative solver
           294 MiB given to the printing process from OS
             0 MiB allocation reported by mallinfo(arena+hblkhd)
        150645 MiB available memory on the node where the printing process lives
------------------
     ethr =  1.00E-06,  avg # of iterations =  3.6

     total cpu time spent up to now is       11.7 secs

     total energy              =    -972.38599752 Ry
     estimated scf accuracy    <       0.00018664 Ry

     iteration # 13     ecut=    60.00 Ry     beta= 0.70
     CG style diagonalization

---- Real-time Memory Report at c_bands before calling an iterative solver
           294 MiB given to the printing process from OS
             0 MiB allocation reported by mallinfo(arena+hblkhd)
        150645 MiB available memory on the node where the printing process lives
------------------
     ethr =  3.59E-07,  avg # of iterations =  4.5

     total cpu time spent up to now is       12.7 secs

     total energy              =    -972.38613005 Ry
     estimated scf accuracy    <       0.00003528 Ry

     iteration # 14     ecut=    60.00 Ry     beta= 0.70
     CG style diagonalization

---- Real-time Memory Report at c_bands before calling an iterative solver
           294 MiB given to the printing process from OS
             0 MiB allocation reported by mallinfo(arena+hblkhd)
        150645 MiB available memory on the node where the printing process lives
------------------
     ethr =  6.78E-08,  avg # of iterations =  4.6

     total cpu time spent up to now is       13.7 secs

     total energy              =    -972.38618986 Ry
     estimated scf accuracy    <       0.00004209 Ry

     iteration # 15     ecut=    60.00 Ry     beta= 0.70
     CG style diagonalization

---- Real-time Memory Report at c_bands before calling an iterative solver
           294 MiB given to the printing process from OS
             0 MiB allocation reported by mallinfo(arena+hblkhd)
        150645 MiB available memory on the node where the printing process lives
------------------
     ethr =  6.78E-08,  avg # of iterations =  3.9

     total cpu time spent up to now is       14.5 secs

     total energy              =    -972.38620481 Ry
     estimated scf accuracy    <       0.00005593 Ry

     iteration # 16     ecut=    60.00 Ry     beta= 0.70
     CG style diagonalization

---- Real-time Memory Report at c_bands before calling an iterative solver
           294 MiB given to the printing process from OS
             0 MiB allocation reported by mallinfo(arena+hblkhd)
        150645 MiB available memory on the node where the printing process lives
------------------
     ethr =  6.78E-08,  avg # of iterations =  3.4

     total cpu time spent up to now is       15.3 secs

     total energy              =    -972.38619848 Ry
     estimated scf accuracy    <       0.00006096 Ry

     iteration # 17     ecut=    60.00 Ry     beta= 0.70
     CG style diagonalization

---- Real-time Memory Report at c_bands before calling an iterative solver
           294 MiB given to the printing process from OS
             0 MiB allocation reported by mallinfo(arena+hblkhd)
        150645 MiB available memory on the node where the printing process lives
------------------
     ethr =  6.78E-08,  avg # of iterations =  3.1

     total cpu time spent up to now is       16.0 secs

     total energy              =    -972.38617583 Ry
     estimated scf accuracy    <       0.00004486 Ry

     iteration # 18     ecut=    60.00 Ry     beta= 0.70
     CG style diagonalization

---- Real-time Memory Report at c_bands before calling an iterative solver
           294 MiB given to the printing process from OS
             0 MiB allocation reported by mallinfo(arena+hblkhd)
        150645 MiB available memory on the node where the printing process lives
------------------
     ethr =  6.78E-08,  avg # of iterations =  4.3

     total cpu time spent up to now is       16.9 secs

     total energy              =    -972.38619351 Ry
     estimated scf accuracy    <       0.00000126 Ry

     iteration # 19     ecut=    60.00 Ry     beta= 0.70
     CG style diagonalization

---- Real-time Memory Report at c_bands before calling an iterative solver
           294 MiB given to the printing process from OS
             0 MiB allocation reported by mallinfo(arena+hblkhd)
        150645 MiB available memory on the node where the printing process lives
------------------
     c_bands:  1 eigenvalues not converged
     ethr =  2.42E-09,  avg # of iterations =  6.7

     total cpu time spent up to now is       18.3 secs

     total energy              =    -972.38619574 Ry
     estimated scf accuracy    <       0.00002391 Ry

     iteration # 20     ecut=    60.00 Ry     beta= 0.70
     CG style diagonalization

---- Real-time Memory Report at c_bands before calling an iterative solver
           294 MiB given to the printing process from OS
             0 MiB allocation reported by mallinfo(arena+hblkhd)
        150645 MiB available memory on the node where the printing process lives
------------------
     ethr =  2.42E-09,  avg # of iterations =  5.4

     total cpu time spent up to now is       19.4 secs

     total energy              =    -972.38619534 Ry
     estimated scf accuracy    <       0.00000469 Ry

     iteration # 21     ecut=    60.00 Ry     beta= 0.70
     CG style diagonalization

---- Real-time Memory Report at c_bands before calling an iterative solver
           294 MiB given to the printing process from OS
             0 MiB allocation reported by mallinfo(arena+hblkhd)
        150645 MiB available memory on the node where the printing process lives
------------------
     ethr =  2.42E-09,  avg # of iterations =  5.2

     total cpu time spent up to now is       20.5 secs

     total energy              =    -972.38619744 Ry
     estimated scf accuracy    <       0.00000069 Ry

     iteration # 22     ecut=    60.00 Ry     beta= 0.70
     CG style diagonalization

---- Real-time Memory Report at c_bands before calling an iterative solver
           294 MiB given to the printing process from OS
             0 MiB allocation reported by mallinfo(arena+hblkhd)
        150645 MiB available memory on the node where the printing process lives
------------------
     ethr =  1.33E-09,  avg # of iterations =  3.8

     total cpu time spent up to now is       21.3 secs

     total energy              =    -972.38619728 Ry
     estimated scf accuracy    <       0.00000080 Ry

     iteration # 23     ecut=    60.00 Ry     beta= 0.70
     CG style diagonalization

---- Real-time Memory Report at c_bands before calling an iterative solver
           294 MiB given to the printing process from OS
             0 MiB allocation reported by mallinfo(arena+hblkhd)
        150645 MiB available memory on the node where the printing process lives
------------------
     ethr =  1.33E-09,  avg # of iterations =  3.9

     total cpu time spent up to now is       22.2 secs

     total energy              =    -972.38619744 Ry
     estimated scf accuracy    <       0.00000004 Ry

     iteration # 24     ecut=    60.00 Ry     beta= 0.70
     CG style diagonalization

---- Real-time Memory Report at c_bands before calling an iterative solver
           294 MiB given to the printing process from OS
             0 MiB allocation reported by mallinfo(arena+hblkhd)
        150645 MiB available memory on the node where the printing process lives
------------------
     ethr =  6.87E-11,  avg # of iterations =  6.7

     total cpu time spent up to now is       23.5 secs

     total energy              =    -972.38619764 Ry
     estimated scf accuracy    <       0.00000006 Ry

     iteration # 25     ecut=    60.00 Ry     beta= 0.70
     CG style diagonalization

---- Real-time Memory Report at c_bands before calling an iterative solver
           294 MiB given to the printing process from OS
             0 MiB allocation reported by mallinfo(arena+hblkhd)
        150645 MiB available memory on the node where the printing process lives
------------------
     ethr =  6.87E-11,  avg # of iterations =  4.5

     total cpu time spent up to now is       24.5 secs

     total energy              =    -972.38619769 Ry
     estimated scf accuracy    <       0.00000007 Ry

     iteration # 26     ecut=    60.00 Ry     beta= 0.70
     CG style diagonalization

---- Real-time Memory Report at c_bands before calling an iterative solver
           294 MiB given to the printing process from OS
             0 MiB allocation reported by mallinfo(arena+hblkhd)
        150645 MiB available memory on the node where the printing process lives
------------------
     ethr =  6.87E-11,  avg # of iterations =  3.9

     total cpu time spent up to now is       25.4 secs

     total energy              =    -972.38619769 Ry
     estimated scf accuracy    <       0.00000007 Ry

     iteration # 27     ecut=    60.00 Ry     beta= 0.70
     CG style diagonalization

---- Real-time Memory Report at c_bands before calling an iterative solver
           294 MiB given to the printing process from OS
             0 MiB allocation reported by mallinfo(arena+hblkhd)
        150645 MiB available memory on the node where the printing process lives
------------------
     ethr =  6.87E-11,  avg # of iterations =  3.6

     total cpu time spent up to now is       26.2 secs

     total energy              =    -972.38619773 Ry
     estimated scf accuracy    <       0.00000004 Ry

     iteration # 28     ecut=    60.00 Ry     beta= 0.70
     CG style diagonalization

---- Real-time Memory Report at c_bands before calling an iterative solver
           294 MiB given to the printing process from OS
             0 MiB allocation reported by mallinfo(arena+hblkhd)
        150644 MiB available memory on the node where the printing process lives
------------------
     ethr =  6.87E-11,  avg # of iterations =  3.7

     total cpu time spent up to now is       27.0 secs

     total energy              =    -972.38619776 Ry
     estimated scf accuracy    <       0.00000012 Ry

     iteration # 29     ecut=    60.00 Ry     beta= 0.70
     CG style diagonalization

---- Real-time Memory Report at c_bands before calling an iterative solver
           294 MiB given to the printing process from OS
             0 MiB allocation reported by mallinfo(arena+hblkhd)
        150644 MiB available memory on the node where the printing process lives
------------------
     ethr =  6.87E-11,  avg # of iterations =  3.5

     total cpu time spent up to now is       27.8 secs

     total energy              =    -972.38619776 Ry
     estimated scf accuracy    <       0.00000020 Ry

     iteration # 30     ecut=    60.00 Ry     beta= 0.70
     CG style diagonalization

---- Real-time Memory Report at c_bands before calling an iterative solver
           294 MiB given to the printing process from OS
             0 MiB allocation reported by mallinfo(arena+hblkhd)
        150644 MiB available memory on the node where the printing process lives
------------------
     ethr =  6.87E-11,  avg # of iterations =  3.4

     total cpu time spent up to now is       28.6 secs

     total energy              =    -972.38619774 Ry
     estimated scf accuracy    <       0.00000023 Ry

     iteration # 31     ecut=    60.00 Ry     beta= 0.70
     CG style diagonalization

---- Real-time Memory Report at c_bands before calling an iterative solver
           294 MiB given to the printing process from OS
             0 MiB allocation reported by mallinfo(arena+hblkhd)
        150644 MiB available memory on the node where the printing process lives
------------------
     ethr =  6.87E-11,  avg # of iterations =  3.1

     total cpu time spent up to now is       29.3 secs

     total energy              =    -972.38619772 Ry
     estimated scf accuracy    <       0.00000019 Ry

     iteration # 32     ecut=    60.00 Ry     beta= 0.70
     CG style diagonalization

---- Real-time Memory Report at c_bands before calling an iterative solver
           294 MiB given to the printing process from OS
             0 MiB allocation reported by mallinfo(arena+hblkhd)
        150644 MiB available memory on the node where the printing process lives
------------------
     ethr =  6.87E-11,  avg # of iterations =  3.1

     total cpu time spent up to now is       30.0 secs

     total energy              =    -972.38619770 Ry
     estimated scf accuracy    <       0.00000014 Ry

     iteration # 33     ecut=    60.00 Ry     beta= 0.70
     CG style diagonalization

---- Real-time Memory Report at c_bands before calling an iterative solver
           294 MiB given to the printing process from OS
             0 MiB allocation reported by mallinfo(arena+hblkhd)
        150644 MiB available memory on the node where the printing process lives
------------------
     ethr =  6.87E-11,  avg # of iterations =  3.5

     total cpu time spent up to now is       30.8 secs

     total energy              =    -972.38619769 Ry
     estimated scf accuracy    <       0.00000008 Ry

     iteration # 34     ecut=    60.00 Ry     beta= 0.70
     CG style diagonalization

---- Real-time Memory Report at c_bands before calling an iterative solver
           294 MiB given to the printing process from OS
             0 MiB allocation reported by mallinfo(arena+hblkhd)
        150644 MiB available memory on the node where the printing process lives
------------------
     ethr =  6.87E-11,  avg # of iterations =  3.8

     total cpu time spent up to now is       31.6 secs

     total energy              =    -972.38619769 Ry
     estimated scf accuracy    <       0.00000002 Ry

     iteration # 35     ecut=    60.00 Ry     beta= 0.70
     CG style diagonalization

---- Real-time Memory Report at c_bands before calling an iterative solver
           294 MiB given to the printing process from OS
             0 MiB allocation reported by mallinfo(arena+hblkhd)
        150644 MiB available memory on the node where the printing process lives
------------------
     ethr =  3.58E-11,  avg # of iterations =  3.8

     total cpu time spent up to now is       32.5 secs

     total energy              =    -972.38619770 Ry
     estimated scf accuracy    <          7.2E-09 Ry

     iteration # 36     ecut=    60.00 Ry     beta= 0.70
     CG style diagonalization

---- Real-time Memory Report at c_bands before calling an iterative solver
           294 MiB given to the printing process from OS
             0 MiB allocation reported by mallinfo(arena+hblkhd)
        150644 MiB available memory on the node where the printing process lives
------------------
     ethr =  1.38E-11,  avg # of iterations =  4.0

     total cpu time spent up to now is       33.3 secs

     total energy              =    -972.38619770 Ry
     estimated scf accuracy    <          3.8E-09 Ry

     iteration # 37     ecut=    60.00 Ry     beta= 0.70
     CG style diagonalization

---- Real-time Memory Report at c_bands before calling an iterative solver
           294 MiB given to the printing process from OS
             0 MiB allocation reported by mallinfo(arena+hblkhd)
        150644 MiB available memory on the node where the printing process lives
------------------
     ethr =  7.27E-12,  avg # of iterations =  5.1

     total cpu time spent up to now is       34.4 secs

     total energy              =    -972.38619770 Ry
     estimated scf accuracy    <          3.1E-09 Ry

     iteration # 38     ecut=    60.00 Ry     beta= 0.70
     CG style diagonalization

---- Real-time Memory Report at c_bands before calling an iterative solver
           294 MiB given to the printing process from OS
             0 MiB allocation reported by mallinfo(arena+hblkhd)
        150644 MiB available memory on the node where the printing process lives
------------------
     ethr =  5.87E-12,  avg # of iterations =  3.8

     total cpu time spent up to now is       35.2 secs

     total energy              =    -972.38619771 Ry
     estimated scf accuracy    <          4.2E-09 Ry

     iteration # 39     ecut=    60.00 Ry     beta= 0.70
     CG style diagonalization

---- Real-time Memory Report at c_bands before calling an iterative solver
           294 MiB given to the printing process from OS
             0 MiB allocation reported by mallinfo(arena+hblkhd)
        150644 MiB available memory on the node where the printing process lives
------------------
     ethr =  5.87E-12,  avg # of iterations =  3.3

     total cpu time spent up to now is       36.0 secs

     total energy              =    -972.38619771 Ry
     estimated scf accuracy    <          5.5E-09 Ry

     iteration # 40     ecut=    60.00 Ry     beta= 0.70
     CG style diagonalization

---- Real-time Memory Report at c_bands before calling an iterative solver
           294 MiB given to the printing process from OS
             0 MiB allocation reported by mallinfo(arena+hblkhd)
        150644 MiB available memory on the node where the printing process lives
------------------
     ethr =  5.87E-12,  avg # of iterations =  3.2

     total cpu time spent up to now is       36.7 secs

     total energy              =    -972.38619771 Ry
     estimated scf accuracy    <          8.2E-09 Ry

     iteration # 41     ecut=    60.00 Ry     beta= 0.70
     CG style diagonalization

---- Real-time Memory Report at c_bands before calling an iterative solver
           294 MiB given to the printing process from OS
             0 MiB allocation reported by mallinfo(arena+hblkhd)
        150644 MiB available memory on the node where the printing process lives
------------------
     ethr =  5.87E-12,  avg # of iterations =  3.5

     total cpu time spent up to now is       37.5 secs

     total energy              =    -972.38619771 Ry
     estimated scf accuracy    <       0.00000001 Ry

     iteration # 42     ecut=    60.00 Ry     beta= 0.70
     CG style diagonalization

---- Real-time Memory Report at c_bands before calling an iterative solver
           294 MiB given to the printing process from OS
             0 MiB allocation reported by mallinfo(arena+hblkhd)
        150645 MiB available memory on the node where the printing process lives
------------------
     ethr =  5.87E-12,  avg # of iterations =  3.2

     total cpu time spent up to now is       38.3 secs

     total energy              =    -972.38619771 Ry
     estimated scf accuracy    <       0.00000001 Ry

     iteration # 43     ecut=    60.00 Ry     beta= 0.70
     CG style diagonalization

---- Real-time Memory Report at c_bands before calling an iterative solver
           294 MiB given to the printing process from OS
             0 MiB allocation reported by mallinfo(arena+hblkhd)
        150644 MiB available memory on the node where the printing process lives
------------------
     ethr =  5.87E-12,  avg # of iterations =  3.1

     total cpu time spent up to now is       39.0 secs

     total energy              =    -972.38619771 Ry
     estimated scf accuracy    <       0.00000001 Ry

     iteration # 44     ecut=    60.00 Ry     beta= 0.70
     CG style diagonalization

---- Real-time Memory Report at c_bands before calling an iterative solver
           294 MiB given to the printing process from OS
             0 MiB allocation reported by mallinfo(arena+hblkhd)
        150644 MiB available memory on the node where the printing process lives
------------------
     ethr =  5.87E-12,  avg # of iterations =  3.1

     total cpu time spent up to now is       39.7 secs

     total energy              =    -972.38619771 Ry
     estimated scf accuracy    <          8.4E-09 Ry

     iteration # 45     ecut=    60.00 Ry     beta= 0.70
     CG style diagonalization

---- Real-time Memory Report at c_bands before calling an iterative solver
           294 MiB given to the printing process from OS
             0 MiB allocation reported by mallinfo(arena+hblkhd)
        150644 MiB available memory on the node where the printing process lives
------------------
     ethr =  5.87E-12,  avg # of iterations =  3.3

     total cpu time spent up to now is       40.4 secs

     total energy              =    -972.38619770 Ry
     estimated scf accuracy    <       0.00000002 Ry

     iteration # 46     ecut=    60.00 Ry     beta= 0.70
     CG style diagonalization

---- Real-time Memory Report at c_bands before calling an iterative solver
           294 MiB given to the printing process from OS
             0 MiB allocation reported by mallinfo(arena+hblkhd)
        150644 MiB available memory on the node where the printing process lives
------------------
     ethr =  5.87E-12,  avg # of iterations =  5.4

     total cpu time spent up to now is       41.6 secs

     total energy              =    -972.38619771 Ry
     estimated scf accuracy    <          6.9E-09 Ry

     iteration # 47     ecut=    60.00 Ry     beta= 0.70
     CG style diagonalization

---- Real-time Memory Report at c_bands before calling an iterative solver
           294 MiB given to the printing process from OS
             0 MiB allocation reported by mallinfo(arena+hblkhd)
        150644 MiB available memory on the node where the printing process lives
------------------
     ethr =  5.87E-12,  avg # of iterations =  3.5

     total cpu time spent up to now is       42.3 secs

     total energy              =    -972.38619770 Ry
     estimated scf accuracy    <          4.2E-09 Ry

     iteration # 48     ecut=    60.00 Ry     beta= 0.70
     CG style diagonalization

---- Real-time Memory Report at c_bands before calling an iterative solver
           294 MiB given to the printing process from OS
             0 MiB allocation reported by mallinfo(arena+hblkhd)
        150644 MiB available memory on the node where the printing process lives
------------------
     ethr =  5.87E-12,  avg # of iterations =  3.6

     total cpu time spent up to now is       43.2 secs

     End of self-consistent calculation

          k = 0.1000 0.1732 0.1033 (  2520 PWs)   bands (ev):

  -114.3172-114.3167 -68.6544 -68.6521 -68.6481 -68.6480 -68.6471 -68.6468
    -9.0271  -8.4598   2.8876   3.0184   3.1834   3.1849   3.3356   3.3740
     4.2302   4.2745   4.4740   4.5272   5.1131   7.2023   7.3245   7.7580
     8.4550   8.5119

     occupation numbers 
     1.0000   1.0000   1.0000   1.0000   1.0000   1.0000   1.0000   1.0000
     1.0000   1.0000   1.0000   1.0000   1.0000   1.0000   1.0000   1.0000
     1.0000   1.0000   1.0000   1.0000   1.0000   1.0000   1.0000   1.0000
     1.0000   1.0000

          k = 0.1000 0.1732-0.3100 (  2512 PWs)   bands (ev):

  -114.3169-114.3169 -68.6536 -68.6536 -68.6475 -68.6475 -68.6471 -68.6471
    -8.7476  -8.7476   2.7574   2.7574   3.2003   3.2003   3.2675   3.2675
     4.3848   4.3848   4.3932   4.3932   6.4854   6.4854   7.7806   7.7806
     8.0980   8.0980

     occupation numbers 
     1.0000   1.0000   1.0000   1.0000   1.0000   1.0000   1.0000   1.0000
     1.0000   1.0000   1.0000   1.0000   1.0000   1.0000   1.0000   1.0000
     1.0000   1.0000   1.0000   1.0000   1.0000   1.0000   1.0000   1.0000
     1.0000   1.0000

          k = 0.1000 0.4041 0.1033 (  2513 PWs)   bands (ev):

  -114.3169-114.3166 -68.6540 -68.6527 -68.6489 -68.6486 -68.6482 -68.6474
    -8.6520  -8.3214   2.7627   3.0167   3.2894   3.4676   3.6767   3.6991
     4.2092   4.3643   4.5005   4.6495   5.1433   5.7480   6.3640   6.7278
     7.8750   7.9567

     occupation numbers 
     1.0000   1.0000   1.0000   1.0000   1.0000   1.0000   1.0000   1.0000
     1.0000   1.0000   1.0000   1.0000   1.0000   1.0000   1.0000   1.0000
     1.0000   1.0000   1.0000   1.0000   1.0000   1.0000   1.0000   1.0000
     1.0000   1.0000

          k = 0.1000 0.4041-0.3100 (  2510 PWs)   bands (ev):

  -114.3168-114.3168 -68.6537 -68.6537 -68.6486 -68.6486 -68.6476 -68.6476
    -8.4824  -8.4824   2.6843   2.6843   3.4051   3.4051   3.5228   3.5228
     4.4083   4.4083   4.4705   4.4705   5.6302   5.6302   7.2426   7.2426
     7.5032   7.5032

     occupation numbers 
     1.0000   1.0000   1.0000   1.0000   1.0000   1.0000   1.0000   1.0000
     1.0000   1.0000   1.0000   1.0000   1.0000   1.0000   1.0000   1.0000
     1.0000   1.0000   1.0000   1.0000   1.0000   1.0000   1.0000   1.0000
     1.0000   1.0000

          k = 0.1000-0.5196 0.1033 (  2498 PWs)   bands (ev):

  -114.3167-114.3165 -68.6537 -68.6527 -68.6488 -68.6484 -68.6482 -68.6473
    -8.5062  -8.3024   2.8089   3.0030   3.3201   3.5974   3.7262   3.8175
     4.3149   4.4009   4.5257   4.6596   4.9509   5.3700   6.1597   6.5531
     7.5535   7.7627

     occupation numbers 
     1.0000   1.0000   1.0000   1.0000   1.0000   1.0000   1.0000   1.0000
     1.0000   1.0000   1.0000   1.0000   1.0000   1.0000   1.0000   1.0000
     1.0000   1.0000   1.0000   1.0000   1.0000   1.0000   1.0000   1.0000
     1.0000   1.0000

          k = 0.1000-0.5196-0.3100 (  2508 PWs)   bands (ev):

  -114.3167-114.3167 -68.6535 -68.6535 -68.6485 -68.6485 -68.6481 -68.6481
    -8.3975  -8.3974   2.6922   2.6922   3.4877   3.4877   3.6307   3.6307
     4.4214   4.4214   4.5750   4.5750   5.1289   5.1289   7.0358   7.0358
     7.4898   7.4898

     occupation numbers 
     1.0000   1.0000   1.0000   1.0000   1.0000   1.0000   1.0000   1.0000
     1.0000   1.0000   1.0000   1.0000   1.0000   1.0000   1.0000   1.0000
     1.0000   1.0000   1.0000   1.0000   1.0000   1.0000   1.0000   1.0000
     1.0000   1.0000

          k = 0.1000-0.2887 0.1033 (  2518 PWs)   bands (ev):

  -114.3171-114.3166 -68.6542 -68.6525 -68.6486 -68.6483 -68.6476 -68.6472
    -8.8498  -8.3840   2.7928   3.0203   3.2327   3.3117   3.5122   3.5340
     4.1934   4.3006   4.4830   4.5817   5.1982   6.3943   6.7824   7.2669
     8.2063   8.2423

     occupation numbers 
     1.0000   1.0000   1.0000   1.0000   1.0000   1.0000   1.0000   1.0000
     1.0000   1.0000   1.0000   1.0000   1.0000   1.0000   1.0000   1.0000
     1.0000   1.0000   1.0000   1.0000   1.0000   1.0000   1.0000   1.0000
     1.0000   1.0000

          k = 0.1000-0.2887-0.3100 (  2524 PWs)   bands (ev):

  -114.3170-114.3170 -68.6537 -68.6537 -68.6484 -68.6484 -68.6477 -68.6477
    -8.6169  -8.6169   2.7045   2.7045   3.2822   3.2822   3.4009   3.4009
     4.3913   4.3913   4.4123   4.4123   6.1907   6.1907   7.4573   7.4573
     7.7338   7.7338

     occupation numbers 
     1.0000   1.0000   1.0000   1.0000   1.0000   1.0000   1.0000   1.0000
     1.0000   1.0000   1.0000   1.0000   1.0000   1.0000   1.0000   1.0000
     1.0000   1.0000   1.0000   1.0000   1.0000   1.0000   1.0000   1.0000
     1.0000   1.0000

          k = 0.1000-0.0577 0.1033 (  2522 PWs)   bands (ev):

  -114.3172-114.3167 -68.6546 -68.6521 -68.6476 -68.6475 -68.6471 -68.6466
    -9.1303  -8.5096   2.9629   3.0250   3.1041   3.1338   3.2577   3.2827
     4.2598   4.2762   4.4694   4.4880   5.0741   7.6927   7.9039   7.9404
     8.5978   8.6889

     occupation numbers 
     1.0000   1.0000   1.0000   1.0000   1.0000   1.0000   1.0000   1.0000
     1.0000   1.0000   1.0000   1.0000   1.0000   1.0000   1.0000   1.0000
     1.0000   1.0000   1.0000   1.0000   1.0000   1.0000   1.0000   1.0000
     1.0000   1.0000

          k = 0.1000-0.0577-0.3100 (  2524 PWs)   bands (ev):

  -114.3170-114.3170 -68.6540 -68.6540 -68.6476 -68.6476 -68.6469 -68.6469
    -8.8268  -8.8268   2.8059   2.8059   3.1660   3.1660   3.1745   3.1745
     4.3873   4.3873   4.3889   4.3889   6.5413   6.5413   8.1431   8.1431
     8.3189   8.3189

     occupation numbers 
     1.0000   1.0000   1.0000   1.0000   1.0000   1.0000   1.0000   1.0000
     1.0000   1.0000   1.0000   1.0000   1.0000   1.0000   1.0000   1.0000
     1.0000   1.0000   1.0000   1.0000   1.0000   1.0000   1.0000   1.0000
     1.0000   1.0000

          k = 0.3000 0.5196 0.1033 (  2502 PWs)   bands (ev):

  -114.3167-114.3166 -68.6536 -68.6532 -68.6487 -68.6486 -68.6485 -68.6482
    -8.3960  -8.3158   3.0281   3.2346   3.3677   3.5810   3.8744   3.9306
     4.2108   4.3320   4.5308   4.5863   5.0789   5.2757   5.4154   6.7452
     7.0548   7.2850

     occupation numbers 
     1.0000   1.0000   1.0000   1.0000   1.0000   1.0000   1.0000   1.0000
     1.0000   1.0000   1.0000   1.0000   1.0000   1.0000   1.0000   1.0000
     1.0000   1.0000   1.0000   1.0000   1.0000   1.0000   1.0000   1.0000
     1.0000   1.0000

          k = 0.3000 0.5196-0.3100 (  2504 PWs)   bands (ev):

  -114.3166-114.3166 -68.6535 -68.6535 -68.6482 -68.6482 -68.6481 -68.6481
    -8.3477  -8.3477   2.9782   2.9782   3.2977   3.2977   3.7855   3.7855
     4.3013   4.3013   4.7560   4.7560   5.1204   5.1204   6.1855   6.1855
     7.5466   7.5466

     occupation numbers 
     1.0000   1.0000   1.0000   1.0000   1.0000   1.0000   1.0000   1.0000
     1.0000   1.0000   1.0000   1.0000   1.0000   1.0000   1.0000   1.0000
     1.0000   1.0000   1.0000   1.0000   1.0000   1.0000   1.0000   1.0000
     1.0000   1.0000

          k = 0.3000-0.4041 0.1033 (  2502 PWs)   bands (ev):

  -114.3168-114.3164 -68.6536 -68.6529 -68.6487 -68.6486 -68.6483 -68.6477
    -8.5120  -8.2998   2.9346   3.0744   3.3443   3.4841   3.7693   3.8076
     4.2133   4.3734   4.5338   4.7621   4.9473   5.6085   5.9629   6.3843
     7.4135   7.6586

     occupation numbers 
     1.0000   1.0000   1.0000   1.0000   1.0000   1.0000   1.0000   1.0000
     1.0000   1.0000   1.0000   1.0000   1.0000   1.0000   1.0000   1.0000
     1.0000   1.0000   1.0000   1.0000   1.0000   1.0000   1.0000   1.0000
     1.0000   1.0000

          k = 0.3000-0.4041-0.3100 (  2510 PWs)   bands (ev):

  -114.3167-114.3167 -68.6537 -68.6537 -68.6486 -68.6486 -68.6481 -68.6481
    -8.3992  -8.3992   2.8113   2.8113   3.3786   3.3786   3.6333   3.6333
     4.3863   4.3863   4.6000   4.6000   5.3379   5.3379   6.6550   6.6550
     7.5175   7.5175

     occupation numbers 
     1.0000   1.0000   1.0000   1.0000   1.0000   1.0000   1.0000   1.0000
     1.0000   1.0000   1.0000   1.0000   1.0000   1.0000   1.0000   1.0000
     1.0000   1.0000   1.0000   1.0000   1.0000   1.0000   1.0000   1.0000
     1.0000   1.0000

          k = 0.3000-0.1732 0.1033 (  2515 PWs)   bands (ev):

  -114.3170-114.3167 -68.6541 -68.6525 -68.6486 -68.6483 -68.6482 -68.6471
    -8.7767  -8.3578   2.7207   3.0151   3.2756   3.3906   3.5835   3.6004
     4.1909   4.3234   4.4884   4.5923   5.2095   5.9696   6.6731   7.1679
     8.1075   8.2102

     occupation numbers 
     1.0000   1.0000   1.0000   1.0000   1.0000   1.0000   1.0000   1.0000
     1.0000   1.0000   1.0000   1.0000   1.0000   1.0000   1.0000   1.0000
     1.0000   1.0000   1.0000   1.0000   1.0000   1.0000   1.0000   1.0000
     1.0000   1.0000

          k = 0.3000-0.1732-0.3100 (  2506 PWs)   bands (ev):

  -114.3167-114.3167 -68.6531 -68.6531 -68.6481 -68.6481 -68.6477 -68.6477
    -8.5655  -8.5655   2.6625   2.6625   3.3934   3.3934   3.4099   3.4099
     4.4039   4.4039   4.4139   4.4139   5.9482   5.9482   7.4098   7.4099
     7.7041   7.7041

     occupation numbers 
     1.0000   1.0000   1.0000   1.0000   1.0000   1.0000   1.0000   1.0000
     1.0000   1.0000   1.0000   1.0000   1.0000   1.0000   1.0000   1.0000
     1.0000   1.0000   1.0000   1.0000   1.0000   1.0000   1.0000   1.0000
     1.0000   1.0000

          k =-0.5000-0.8660 0.1033 (  2504 PWs)   bands (ev):

  -114.3169-114.3164 -68.6543 -68.6524 -68.6491 -68.6486 -68.6482 -68.6470
    -8.5026  -8.3041   2.7719   2.9060   3.3490   3.6583   3.6961   3.8173
     4.3602   4.4384   4.5092   4.5988   5.0229   5.1873   6.2514   6.6426
     7.5967   7.8834

     occupation numbers 
     1.0000   1.0000   1.0000   1.0000   1.0000   1.0000   1.0000   1.0000
     1.0000   1.0000   1.0000   1.0000   1.0000   1.0000   1.0000   1.0000
     1.0000   1.0000   1.0000   1.0000   1.0000   1.0000   1.0000   1.0000
     1.0000   1.0000

          k =-0.5000-0.8660-0.3100 (  2500 PWs)   bands (ev):

  -114.3166-114.3166 -68.6533 -68.6533 -68.6485 -68.6485 -68.6478 -68.6478
    -8.3964  -8.3964   2.6321   2.6321   3.5537   3.5537   3.6155   3.6155
     4.4607   4.4607   4.5493   4.5493   5.0236   5.0236   7.2952   7.2952
     7.4249   7.4249

     occupation numbers 
     1.0000   1.0000   1.0000   1.0000   1.0000   1.0000   1.0000   1.0000
     1.0000   1.0000   1.0000   1.0000   1.0000   1.0000   1.0000   1.0000
     1.0000   1.0000   1.0000   1.0000   1.0000   1.0000   1.0000   1.0000
     1.0000   1.0000

     highest occupied level (ev):     8.6889

!    total energy              =    -972.38619770 Ry
     estimated scf accuracy    <          7.6E-10 Ry

     The total energy is the sum of the following terms:
     one-electron contribution =    -774.30407681 Ry
     hartree contribution      =     407.89880303 Ry
     xc contribution           =     -97.81041343 Ry
     ewald contribution        =    -508.17051050 Ry

     convergence has been achieved in  48 iterations

     Writing all to output data dir ./TMP/zno.save/ :
     XML data file, charge density, pseudopotentials, collected wavefunctions

     init_run     :      0.74s CPU      0.76s WALL (       1 calls)
     electrons    :     38.96s CPU     42.19s WALL (       1 calls)

     Called by init_run:
     wfcinit      :      0.13s CPU      0.14s WALL (       1 calls)
     wfcinit:atom :      0.00s CPU      0.00s WALL (      18 calls)
     wfcinit:wfcr :      0.12s CPU      0.13s WALL (      18 calls)
     potinit      :      0.07s CPU      0.07s WALL (       1 calls)
     hinit0       :      0.31s CPU      0.31s WALL (       1 calls)

     Called by electrons:
     c_bands      :     27.29s CPU     29.57s WALL (      48 calls)
     sum_band     :      6.66s CPU      7.31s WALL (      48 calls)
     v_of_rho     :      1.34s CPU      1.35s WALL (      49 calls)
     v_h          :      0.05s CPU      0.05s WALL (      49 calls)
     v_xc         :      1.29s CPU      1.30s WALL (      49 calls)
     newd         :      3.59s CPU      3.85s WALL (      49 calls)
     mix_rho      :      0.10s CPU      0.10s WALL (      48 calls)

     Called by c_bands:
     init_us_2    :      0.42s CPU      0.45s WALL (    1746 calls)
     ccgdiagg     :     22.01s CPU     23.91s WALL (     864 calls)
     wfcrot       :      5.11s CPU      5.48s WALL (     864 calls)

     Called by sum_band:
     sum_band:wei :      0.00s CPU      0.00s WALL (      48 calls)
     sum_band:loo :      2.67s CPU      2.85s WALL (      48 calls)
     sum_band:buf :      0.03s CPU      0.03s WALL (     864 calls)
     sum_band:ini :      0.21s CPU      0.22s WALL (     864 calls)
     sum_band:cal :      0.16s CPU      0.17s WALL (     864 calls)
     sum_band:bec :      0.01s CPU      0.01s WALL (     864 calls)
     addusdens    :      3.66s CPU      4.13s WALL (      48 calls)
                                        0.00s GPU  (      48 calls)
     addusd:skk   :      0.02s CPU      0.02s WALL (      96 calls)
                                        0.00s GPU  (      96 calls)

     Called by *cgdiagg:
     h_psi        :     20.90s CPU     22.66s WALL (   68543 calls)
     s_psi        :      1.62s CPU      1.76s WALL (  136222 calls)

     Called by h_psi:
     h_psi:calbec :      1.23s CPU      1.33s WALL (   68543 calls)
     vloc_psi     :     17.32s CPU     18.79s WALL (   68543 calls)
     add_vuspsi   :      2.02s CPU      2.20s WALL (   68543 calls)
     hs_1psi      :     17.39s CPU     18.89s WALL (   67679 calls)
     s_1psi       :      1.83s CPU      1.97s WALL (   67679 calls)

     General routines
     calbec       :      2.15s CPU      2.36s WALL (  137086 calls)
     fft          :      0.41s CPU      0.42s WALL (     635 calls)
     ffts         :      0.02s CPU      0.02s WALL (      97 calls)
     fftw         :     15.81s CPU     17.10s WALL (  202822 calls)
     interpolate  :      0.05s CPU      0.05s WALL (      49 calls)

     Parallel routines

     PWSCF        :     39.94s CPU     43.61s WALL


   This run was terminated on:  20:28:13  26Mar2024            

=------------------------------------------------------------------------------=
   JOB DONE.
=------------------------------------------------------------------------------=
